LAMMPS data file via write_data, version 2 Aug 2023, timestep = 120, units = metal

28800 atoms
4 atom types

1.9705759542377166 54.06942404576229 xlo xhi
1.9705759542377166 54.06942404576229 ylo yhi
2.3348722941002897 64.06512770589967 zlo zhi

Masses

1 24.305
2 28.0855
3 15.9994
4 4.002602

Atoms # atomic

1 1 3.3358695588314067 5.038406104516927 3.1160995138696936 0 0 0
58 2 4.835578271377696 2.569860671011049 5.161580051541444 0 0 0
109 3 53.62403851330002 2.655366323462048 4.546342763236911 -1 0 0
112 3 5.240755225636323 53.612561906165325 4.705129265743594 0 -1 0
114 3 3.2200028088824384 5.853804417506669 4.500350091137406 0 0 0
118 3 5.544073337475691 4.243630576992567 4.58418627729369 0 0 0
120 3 2.2745999883234465 6.473642249641392 3.3194619546947557 0 0 0
115 3 4.6716033521866915 4.663602251587525 62.934781255298745 0 0 -1
117 3 4.776824802565597 4.696164626915882 6.4621873741987965 0 0 0
73 2 6.520180733735269 4.09460703528676 2.946907674490582 0 0 0
75 2 7.316040405988404 4.983448592384345 6.124065401664675 0 0 0
163 3 6.336553076350289 3.1900753854824524 3.9721216245919706 0 0 0
168 3 6.652258863664439 4.347897124257587 6.5229537883818605 0 0 0
174 3 6.690189171398923 5.27736010067952 2.409376586544367 0 0 0
19 1 7.769619833510553 5.051172951105766 3.895422567086139 0 0 0
76 2 8.469384627417682 2.104115208408726 6.3483811857302666 0 0 0
23327 4 4.8741486399367595 3.7045973573105595 4.794256871290367 0 0 1
93 2 11.562670457818879 5.147310726033927 5.929420128374372 0 0 0
166 3 9.182654056422697 3.0418307539569085 2.5099598390721933 0 0 0
172 3 10.269563170771372 2.8721769707055556 5.275186227246856 0 0 0
217 3 9.73258040804038 3.5168276983880755 3.5311384686799165 0 0 0
222 3 12.724392421194475 4.374707035525914 5.450023831046595 0 0 0
228 3 13.104240255921114 5.660635678490447 3.404289494083666 0 0 0
169 3 9.424048844638422 4.889588603503341 2.610254801905067 0 0 0
171 3 9.441003842226941 5.202683324316526 4.505265160517886 0 0 0
37 1 12.45359381513331 3.5487693281358252 3.8630572617754577 0 0 0
94 2 13.809485317785379 2.3947566865940084 5.674829852754382 0 0 0
220 3 13.87677633560019 2.2535045722119307 5.181354984775494 0 0 0
415 2 15.556270754550345 3.324469085798645 2.421373148026647 0 0 0
417 2 15.307498232851426 4.530768817415388 5.963217020879503 0 0 0
469 3 14.270549548178352 2.914399539680873 4.99658830835245 0 0 0
225 3 13.460268752171146 5.160433389312457 6.203042802022358 0 0 0
361 1 17.897672508571254 3.2416417062105993 4.5508060378306325 0 0 0
418 2 17.309171315535437 2.8289797342380614 6.214450243482185 0 0 0
472 3 16.248156506790956 2.6326892305573297 5.159043717977257 0 0 0
473 3 16.586632008919374 3.7248094864108876 5.086622212991349 0 0 0
474 3 16.06117322881782 4.114679361006701 5.149508317101144 0 0 0
478 3 16.77658272474153 3.7055182532197817 5.441882605970564 0 0 0
480 3 17.26767858500761 5.007663150823313 3.501256186992288 0 0 0
433 2 19.294316523294395 4.178453668612347 2.5256341751790377 0 0 0
435 2 19.07762761934262 3.298588850916209 5.897372258784767 0 0 0
475 3 19.36088919966606 4.708722455923228 63.44230513269528 0 0 -1
523 3 19.315461578600594 4.790293243051897 2.4921153095620063 0 0 0
528 3 21.316819689826016 4.526982023471838 5.728436041929 0 0 0
534 3 19.475436326788408 3.762416667903281 3.4296241231950644 0 0 0
379 1 21.955877402232424 4.818666385956199 2.7449856506008103 0 0 0
526 3 21.936366085424105 2.0920689971957844 4.388834411971626 0 0 0
532 3 21.352956932376216 3.5011385679155556 4.353011028302959 0 0 0
451 2 24.212417727569246 3.3437130676522333 2.5108241136048153 0 0 0
453 2 23.231160655391246 3.140980679589655 5.52011744107593 0 0 0
577 3 23.284346504603917 5.13495989575374 5.020242796590112 0 0 0
581 3 24.945883213374525 2.0634733751685483 4.986669933809832 0 0 0
397 1 26.870755293520748 3.288397407860643 3.785845823548988 0 0 0
454 2 25.531946658701642 2.4025606957438725 5.542391193954698 0 0 0
582 3 25.7765455312161 4.185234190832201 5.769888043442708 0 0 0
588 3 24.871475078833132 3.9768484770826307 63.69339575413301 0 0 -1
531 3 23.39473898196222 4.295582296755175 4.72259020342876 0 0 0
580 3 27.13618758467205 2.9684940711191805 5.259135580742617 0 0 0
777 2 27.978037147353987 3.902663754728083 6.094300160611443 0 0 0
829 3 29.1220142489142 3.577659870843104 5.294343650319966 0 0 0
833 3 29.233714860936082 2.531872879774217 4.875718497182932 0 0 0
834 3 29.92465945770092 5.196822057648129 5.643702370014536 0 0 0
840 3 30.00423762298786 5.161009309508595 2.8935670589874776 0 0 0
583 3 27.87545550416677 5.487532287150168 63.3446710341626 0 0 -1
585 3 27.16251065407396 4.6306139666637165 5.50829414772036 0 0 0
721 1 30.950352811502054 4.365673319738847 4.230636618059312 0 0 0
778 2 29.56603454787813 2.612021037007785 5.040548999855723 0 0 0
795 2 33.036466683405116 5.238687711826564 6.4432994544814255 0 0 0
883 3 32.242643622351 3.920334838761253 4.885438936170043 0 0 0
835 3 30.77447952726796 4.397987129524884 3.467347999333857 0 0 0
837 3 31.670072156500577 4.284259903948727 6.200391915406784 0 0 0
24045 4 29.987467751157794 4.408931456797006 4.47703686684162 0 0 1
888 3 33.604616494139876 5.347509120311417 4.505897898581198 0 0 0
894 3 33.75676579083478 5.279237557166852 2.969396355460114 0 0 0
739 1 35.62765423675086 4.668982902797714 2.6247987267619455 0 0 0
813 2 36.47520844769297 5.077501863977432 4.744705615010268 0 0 0
886 3 35.21484376673687 3.439273017988512 4.512298304254637 0 0 0
892 3 34.584825897184565 2.184110926326945 5.575066130370464 0 0 0
811 2 37.40845230633765 3.817837316497803 64.03757673366866 0 0 -1
937 3 35.86953136070168 4.879474989643379 4.7706955727912295 0 0 0
941 3 37.409646939977904 2.4321594720936863 4.8959337063537225 0 0 0
757 1 39.13213707880021 4.822663605715492 3.095015372648494 0 0 0
940 3 40.6229252123352 3.3820787027709054 3.4154967111158685 0 0 0
942 3 36.847898236762674 4.861746366351981 4.100309541247167 0 0 0
946 3 41.03417549220262 2.560473788830233 5.361943224844873 0 0 0
948 3 38.14336949895323 3.7828432086260433 2.7169341019519284 0 0 0
945 3 39.52041050929954 4.079208202452866 4.405579355006163 0 0 0
24043 4 41.35460449011991 2.4414825404725478 5.09607352084032 0 0 1
1081 1 43.520524122484396 4.664031167128746 3.746273574257825 0 0 0
1135 2 40.139955768620325 3.9499704308639774 64.05716385145801 0 0 -1
1137 2 40.69341147078452 4.521017346618702 5.519586779510478 0 0 0
1138 2 44.155944518745926 2.2881999365952645 5.178776513856947 0 0 0
1189 3 40.77590656928811 3.0755216760638993 3.389097205404453 0 0 0
1192 3 42.87015246831375 2.5790667672108856 2.7646176006757632 0 0 0
1194 3 42.08317848229588 4.804774448521902 5.833810827428492 0 0 0
1200 3 42.71537387665374 6.285818872712015 3.4703421090779476 0 0 0
1153 2 46.037774694224055 3.2030651859802637 2.8602669614473815 0 0 0
1155 2 44.96751856491577 4.949761407625816 5.121832557247744 0 0 0
1243 3 46.05859319551118 4.637976244980023 4.050034730836068 0 0 0
1248 3 46.02901637897488 5.991687943936333 5.565531349108192 0 0 0
1254 3 47.2917447811628 6.033851638960086 2.4988595915726295 0 0 0
1099 1 47.60744784537319 3.908675612332793 3.9457873084291304 0 0 0
1156 2 46.63015024953414 2.0980080900365046 5.3794631427596125 0 0 0
1173 2 50.36189039308598 4.193517776822613 4.766792657548213 0 0 0
1246 3 48.05436962719481 3.2796186446597853 4.8226735344315 0 0 0
1252 3 49.432399200269245 3.503078094839224 5.036454785795005 0 0 0
1297 3 51.34746784645373 5.217652343161835 3.351723017329217 0 0 0
1301 3 49.3836878272987 3.3483054802084817 5.226731833188946 0 0 0
1249 3 48.84246573908678 4.98832215391764 63.84258441544165 0 0 -1
1251 3 49.776575164355826 4.282019437070513 3.8211791648999647 0 0 0
57 2 53.2312972503192 3.0540615563021007 5.828237412499393 -1 0 0
1117 1 52.03768287209108 4.136659947808402 3.4422998778341913 0 0 0
1172 2 51.584728824813915 2.5091718433035 3.135625715829745 0 0 0
1300 3 52.143384773928624 2.4370758177547414 4.628444349345812 0 0 0
1302 3 51.96487070605512 5.493995951795735 4.680344811886181 0 0 0
1308 3 49.71143933092634 5.209828426906639 2.3544132369121398 0 0 0
1303 3 53.713569949688456 4.998476872637177 63.55035182304725 0 0 -1
1305 3 2.116715851680412 3.9559071532360797 5.498240546854616 1 0 0
4 1 53.71036653240038 5.544324604295363 4.648698644890828 -1 0 0
62 2 4.916616849605836 7.307863725426748 2.387897944937089 0 0 0
64 2 4.048809598332792 6.997363945425546 4.819092678673158 0 0 0
127 3 53.97460336216682 7.811476935285657 5.1499573800764775 -1 0 0
130 3 4.376545942556062 7.352462290079898 3.6630096742768057 0 0 0
7 1 4.3933988620237825 7.5057530769939245 3.084565675838592 0 0 0
63 2 2.5985610721678416 9.416082785381882 4.458647484387324 0 0 0
22 1 6.824361594742576 6.837331661433874 3.7107529475085546 0 0 0
181 3 6.368849597274844 9.148415020448276 4.822359680113236 0 0 0
80 2 8.585419179149728 6.133456227112656 2.453544740240247 0 0 0
82 2 7.6475640182655535 6.070374725561412 5.73873689083856 0 0 0
184 3 8.796611024603177 5.706060710723337 2.4596394917342517 0 0 0
81 2 6.115107177218218 9.43039081338474 6.10397853627233 0 0 0
25 1 9.215164407732289 7.5841909561667125 3.624975586080646 0 0 0
40 1 9.971659419077508 6.612319451349935 4.9580613072106665 0 0 0
235 3 11.237162075877182 8.804807357484407 2.6147047775713554 0 0 0
97 2 10.82293349970818 8.77224480597462 2.470083623461745 0 0 0
99 2 10.495706559544605 9.37251838819592 4.8126926235175524 0 0 0
100 2 13.578415437741116 6.981525782310578 4.582966518325293 0 0 0
223 3 15.32307798868495 6.157390965592566 3.001849936107761 0 0 0
238 3 12.279775363096205 6.93257423971839 4.050234741167215 0 0 0
244 3 13.880860800926943 8.335376595320334 4.7274661749643485 0 0 0
364 1 14.969938745849293 5.297651357929125 4.448640195626611 0 0 0
487 3 16.362973953884868 7.643526812035187 3.6134284217707213 0 0 0
43 1 12.144534629435345 8.0380115695941 3.431756400058247 0 0 0
423 2 15.375545896533762 7.763694390755174 5.604304810235396 0 0 0
424 2 17.980605316859066 5.417296940064761 5.856460968383264 0 0 0
490 3 16.89332796500952 5.422496534235679 3.4402088325560354 0 0 0
496 3 17.92433095568187 7.656975055826612 5.1034547532955195 0 0 0
477 3 19.016343378969033 6.232754518513839 5.027591414408398 0 0 0
367 1 17.45708897977196 7.972028698706511 2.6789783892886394 0 0 0
439 2 18.742844941759067 8.82339205425927 3.1541055779052733 0 0 0
382 1 19.50861322444157 5.831488539125609 2.7842008428295557 0 0 0
541 3 18.690532297661576 8.312172780982689 4.454624524002976 0 0 0
545 3 21.400014142380062 7.354104021221838 4.497445614437465 0 0 0
440 2 22.17965137887232 6.673249324841691 2.7440812966465677 0 0 0
442 2 22.004362094635432 5.835563626663983 5.81809556228611 0 0 0
529 3 22.658951130825585 6.61048278039534 63.8626728173422 0 0 -1
544 3 21.285141061955663 7.208940111546853 4.118897218184594 0 0 0
441 2 19.398609898085788 7.698962285454212 5.613103564633809 0 0 0
385 1 21.842779416541088 9.712150938343552 4.183197537681335 0 0 0
400 1 24.602081101399108 6.986170000371075 4.013607613112624 0 0 0
595 3 24.340349995050502 8.858967276020788 3.3697518650861342 0 0 0
460 2 25.61281955049939 6.6172640600790436 6.3412942660150415 0 0 0
598 3 25.860747229896614 7.036160402342942 4.217493510877612 0 0 0
459 2 24.523749037642947 9.439234196402673 4.992057578080047 0 0 0
403 1 26.81333847538492 8.619944773441532 3.2981107385253967 0 0 0
724 1 27.342319661417058 6.165171641078407 3.9113245653106015 0 0 0
847 3 28.13276008034625 8.427204058049188 4.983562326091776 0 0 0
851 3 29.772893054379608 7.627021528909357 5.4782137683505026 0 0 0
783 2 28.58115354717155 7.587760623206181 5.643634598805395 0 0 0
784 2 30.414004782532178 7.281148988684103 5.147503945899943 0 0 0
850 3 29.24387583810655 6.181113485810498 2.5504412785873964 0 0 0
742 1 32.67132298835631 6.00798322022632 3.621487348691663 0 0 0
901 3 33.773240958396414 7.480539025465688 4.902255007477426 0 0 0
727 1 30.313946594525042 9.165575436676226 3.3075653770189275 0 0 0
801 2 32.084507586742916 8.127598144909324 6.223331674513459 0 0 0
802 2 34.95417823337785 6.825440052645014 5.584630654803064 0 0 0
889 3 36.56317543116125 6.696987874647388 3.7177804342991516 0 0 0
891 3 34.69249432204432 6.030485633687601 5.2207256819721675 0 0 0
904 3 35.031307291446545 6.25772634971627 4.712673670354861 0 0 0
745 1 34.06216117847184 9.389571663255808 3.5444113189710706 0 0 0
760 1 37.74197328931085 6.269672106133927 2.993528561030453 0 0 0
955 3 38.46634010903688 7.403698109843451 4.978332043797654 0 0 0
818 2 39.37200687208705 6.876805773245225 2.81478176027105 0 0 0
820 2 38.232106771994275 6.963465981028146 6.142293107384846 0 0 0
958 3 38.19688572549767 6.094460015587224 3.464557371844726 0 0 0
819 2 37.58531796581183 9.28157184912762 4.581468408829828 0 0 0
763 1 39.53437670227545 9.733685052336654 4.21098021380187 0 0 0
943 3 41.48789120557195 6.1522852413013345 63.432700733815864 0 0 -1
1084 1 40.42861272788547 6.748398409928498 4.656137397054861 0 0 0
1142 2 42.32938294086383 5.587796713090857 63.89086137624429 0 0 -1
1144 2 42.738519062712555 6.581717966549793 6.222270644787253 0 0 0
1207 3 42.34544788201563 8.678816374704988 3.7579257889970306 0 0 0
1211 3 41.35293115695057 7.383160399996818 5.091146255868676 0 0 0
1087 1 43.04691471172312 7.7620713773324175 3.6584750478742274 0 0 0
1141 2 40.23550110723825 7.651125627307084 2.3360916526782773 0 0 0
1143 2 40.670538109707564 8.622458264469207 5.110782855494561 0 0 0
24402 4 39.44162327451813 8.940843755095322 4.733338711273376 0 0 1
1210 3 43.71417736633277 5.4664948943137945 2.5156691178371626 0 0 0
1102 1 45.820061451540596 5.626504381311765 3.8815313378079104 0 0 0
1195 3 45.118992531135035 6.807262094346935 3.8482991920818916 0 0 0
1197 3 44.88178209963596 6.7518820294191695 6.282332106513756 0 0 0
1261 3 44.788810723533715 8.728798732233518 3.7478714773847104 0 0 0
1265 3 46.32914077018028 6.791377205270943 5.382251278362327 0 0 0
1161 2 44.83886900256607 7.881855842659341 6.278857986408067 0 0 0
1120 1 49.08406794930682 6.6771719554575215 3.264313010772344 0 0 0
1162 2 48.476142475257284 6.5980411639670145 6.013946120851914 0 0 0
1264 3 46.63240174115561 5.5694057074626535 4.818791596867838 0 0 0
1270 3 48.68607072168116 6.729584221791689 4.964436265847746 0 0 0
1315 3 48.85929340897078 8.757574430652234 3.8365725503357258 0 0 0
1105 1 47.76356845228189 9.217411748280671 3.92445417644186 0 0 0
1177 2 49.063085083035816 8.855545623964627 2.984069789726908 0 0 0
1179 2 49.88237032671874 8.679554812125915 6.368604522637919 0 0 0
1178 2 51.9112056922154 6.752391373479516 2.96714339934773 0 0 0
1180 2 51.96087546661904 5.8029573777389825 5.6260667772050885 0 0 0
1318 3 50.991879424170975 6.63054379202361 3.9529208634091377 0 0 0
1324 3 51.74053435744542 7.574274590572833 4.710465493034255 0 0 0
1123 1 51.720058047776966 8.78312931013544 3.0623061838683476 0 0 0
24400 4 52.09398102453104 9.885503992334467 4.746656663097422 0 0 1
24397 4 52.3504072636258 6.262102384179509 4.330831462501562 0 0 1
10 1 2.783979220959525 11.437869184722603 4.046303344038403 0 0 0
68 2 4.929983531434347 11.656944515144373 2.738652395056924 0 0 0
70 2 3.705189615175284 9.632589324332114 6.264245008715119 0 0 0
132 3 4.75254133406327 10.307082460332703 4.124896690672751 0 0 0
138 3 2.5163848495679866 9.041377548513825 3.5714992984520055 0 0 0
148 3 5.712746666518555 10.05093606378203 4.003394265062784 0 0 0
149 3 3.863342867392972 10.823554402380493 5.24562461473483 0 0 0
133 3 4.225923787475554 8.968641732581066 2.504335916201593 0 0 0
154 3 4.6522485329033305 11.698442266638478 4.762980901188756 0 0 0
28 1 7.177864288491139 10.680209367921538 3.2361246452073273 0 0 0
135 3 5.4945904784301 10.043446513709135 4.398182294559559 0 0 0
186 3 7.436485862073347 9.075918067004661 4.688326453278681 0 0 0
192 3 8.877635196639378 8.159937662769643 63.21195695053957 0 0 -1
86 2 8.61329813405527 10.986722878661869 2.8701623249487214 0 0 0
88 2 8.958567351706336 10.458408877617472 5.703074851088209 0 0 0
46 1 9.760498690142416 11.28537593168997 3.1353527866655932 0 0 0
187 3 8.312371089760031 9.773614933471016 3.5158950064869012 0 0 0
189 3 9.70846458098347 10.040063700930272 5.517304239421309 0 0 0
202 3 9.533654537094773 11.051355332415502 3.03794473320922 0 0 0
240 3 11.20261501216771 10.726008303951776 5.764553364218132 0 0 0
246 3 13.317393379319622 8.826647475998438 2.6430311737826413 0 0 0
106 2 13.229383136168673 10.90460203106763 4.918306244142001 0 0 0
241 3 15.164314786956982 8.966807859511134 63.94649687703827 0 0 -1
243 3 15.535636946919064 10.184355680292041 4.180934972862562 0 0 0
256 3 13.557042056793133 11.457506270157463 3.9720091710326075 0 0 0
370 1 14.120829112520378 9.573343941500383 4.606685649485772 0 0 0
262 3 14.193479855848413 11.47703593396505 5.418866000261432 0 0 0
428 2 16.48897124451279 11.437436893851801 2.5273482963277956 0 0 0
430 2 17.524610889752026 10.497149666103448 5.22184866581658 0 0 0
492 3 16.155547738276564 10.162620431086845 4.964663862809928 0 0 0
498 3 14.884896447402294 9.529269060175583 3.3329576985572285 0 0 0
508 3 16.818989577716543 11.24909793096575 3.8140425478969195 0 0 0
493 3 19.031103600140106 8.937414840147547 3.066386709241917 0 0 0
495 3 17.679547875684918 8.543360391972964 4.892467285407946 0 0 0
388 1 20.649910771383194 10.03935487233183 4.283137630226994 0 0 0
546 3 21.332657951306476 10.70878792445533 6.580632230787114 0 0 0
552 3 20.448306801509148 8.887491250763077 3.6602892976528727 0 0 0
446 2 21.911992588196686 9.902090601840575 3.167809259250945 0 0 0
448 2 21.912553371750334 10.321752754510694 5.448087221943769 0 0 0
547 3 21.34757832069477 9.199754751716448 63.54529445838479 0 0 -1
562 3 22.534871734984396 9.514981598623347 3.571631085567625 0 0 0
406 1 23.471480907037268 10.748261912736695 4.481789441292802 0 0 0
549 3 23.49423228554124 10.837184870918007 4.3091863335787295 0 0 0
617 3 25.006782836681943 11.921399820999987 5.019620522017725 0 0 0
466 2 25.27393567677166 11.213345927671217 6.147013963870457 0 0 0
600 3 23.735000814690945 8.405095091640618 6.373395252980465 0 0 0
606 3 24.326935740741394 9.308001367302388 63.966313912219306 0 0 -1
616 3 24.965506865302046 11.910252890405275 2.545669051005166 0 0 0
601 3 26.42783780821596 10.776925816237636 3.5043811335229362 0 0 0
603 3 27.165170232828615 10.464018266841961 4.549895210245699 0 0 0
730 1 28.845544606947673 10.985500535392257 3.9532701583721153 0 0 0
852 3 28.84583992766611 8.573679693610162 4.477183027615165 0 0 0
858 3 28.268349587148748 10.655811734361436 3.286012042736205 0 0 0
869 3 28.981172517212535 10.589813642409009 4.885565659070896 0 0 0
622 3 26.828466373097083 10.866570116462055 5.447282162965692 0 0 0
790 2 29.863990517731303 10.092667809718739 4.811634348191916 0 0 0
868 3 31.933585389492936 9.626645138770797 3.4439180022596974 0 0 0
748 1 32.74810485093411 9.6582506831006 4.753751678840045 0 0 0
853 3 32.06763438387574 8.775790413367323 3.465582361907012 0 0 0
855 3 30.329035274440304 9.572502312079997 5.372836399124959 0 0 0
874 3 29.892747741671496 11.762890916143787 4.366027167528166 0 0 0
906 3 34.235382181123335 10.467921268337268 6.378351237724722 0 0 0
912 3 33.189844246621675 8.287047987657033 63.093047646022214 0 0 -1
766 1 36.10153132058096 10.445807481943527 3.690527455276907 0 0 0
808 2 35.48011084486544 11.216504447814081 6.532522549218151 0 0 0
907 3 37.1718393662995 10.223539145553632 63.84851209530572 0 0 -1
909 3 36.27111298780891 9.443593277686112 4.371084941743245 0 0 0
922 3 34.21098534955458 10.926287505883073 2.8237588018074256 0 0 0
928 3 36.137307830670736 10.799774187097832 4.8496231758001205 0 0 0
977 3 36.64181279229356 12.299838569056663 5.010514927626527 0 0 0
824 2 39.79194703193533 9.914455291363677 3.3547295682789833 0 0 0
826 2 39.51206278307619 10.890862093122621 5.891027714242815 0 0 0
960 3 38.060761870864084 8.034620634008817 6.63663697656488 0 0 0
966 3 39.181554748848 10.036365681523481 63.22709424775651 0 0 -1
976 3 39.16121564495788 11.413518156151792 3.097129543131452 0 0 0
982 3 39.66580323367605 11.445733541626034 6.198548128774865 0 0 0
961 3 40.86884426903671 9.587692849480728 2.7737320150309257 0 0 0
963 3 41.40689634196963 8.779639939602848 3.764268261816564 0 0 0
1090 1 41.51279667006601 11.299864315678658 3.5848486435314437 0 0 0
1150 2 42.75165370332756 10.706243973899513 5.873740198691538 0 0 0
1212 3 42.075666297920804 10.254357162021094 5.751305803946778 0 0 0
1218 3 41.47459579157187 8.662092071287834 2.6197377738819987 0 0 0
1228 3 43.7073095309308 11.327826846050364 3.5175840551635607 0 0 0
1108 1 44.799709962612695 9.547554364722682 4.528890992807121 0 0 0
1213 3 44.56922399139179 10.50432714164464 63.674389648070374 0 0 -1
1215 3 44.379835538839515 9.90092296944912 6.107022928547822 0 0 0
1266 3 47.32616912794776 8.128972146730241 4.02290878628326 0 0 0
1272 3 45.750275774119366 8.43974019808436 3.7611302553177923 0 0 0
1234 3 43.67770765706359 12.956672203337757 5.87850503834296 0 0 0
1126 1 49.7299879435645 11.543908672194046 3.1973482019073725 0 0 0
1168 2 48.00889748313557 10.00618267355378 4.662597985027004 0 0 0
1267 3 49.523554460271434 9.956837583212087 2.343733206104384 0 0 0
1269 3 47.91789296923833 11.083279231825742 5.765715167161083 0 0 0
1282 3 48.40003918335967 11.356343678729607 3.5495181940343996 0 0 0
1288 3 48.15842369369085 12.798958336582055 4.7052931385887895 0 0 0
1337 3 51.11551054911328 12.434001072988886 5.55621777383115 0 0 0
1184 2 51.62476979518844 10.817759389247865 2.7479231452784854 0 0 0
1186 2 51.02804781475046 10.582040605603536 5.401037782247441 0 0 0
1320 3 52.317849432879036 9.540563150890137 5.012223696567507 0 0 0
1321 3 52.25919753537377 9.022837836187767 3.5381718212743802 0 0 0
1323 3 52.34207327783967 10.992837580206373 3.9747018430177428 0 0 0
1326 3 51.91931316715816 8.725775253791472 2.9007890617418086 0 0 0
1336 3 51.965907786480955 12.110052099448975 3.577786395088009 0 0 0
1342 3 52.30496067894517 11.090267490164123 5.238215315655385 0 0 0
24394 4 51.97417313739796 9.818713484342958 5.097315175470637 0 0 1
24391 4 51.06554041737722 12.279771986279673 4.502427423329149 0 0 1
13 1 3.4421352098314553 12.205963498664268 4.405823596179024 0 0 0
16 1 3.107257135832157 15.654735794113943 2.9551338744442064 0 0 0
145 3 2.085300535175506 12.271395086664457 2.8797809849054183 0 0 0
150 3 3.543785685174438 13.54643718572522 4.968009900881384 0 0 0
156 3 3.0054018292766793 12.227936957518585 63.44115948584876 0 0 -1
151 3 4.6748177876820645 13.698209608882197 2.784184656478558 0 0 0
1496 2 4.308736320495624 14.495530531942066 3.073373131146296 0 0 0
1498 2 4.499746641170004 14.832143331264644 6.458486042949297 0 0 0
1552 3 4.976960537350614 14.397291909387963 3.611896846716318 0 0 0
34 1 5.723872296273463 15.636039825711226 3.3743283422619417 0 0 0
85 2 6.025164885185832 12.558749702743564 2.509396632855694 0 0 0
87 2 5.591966382203079 12.065084427262375 4.85285573241223 0 0 0
153 3 6.044004488151279 14.601848705533625 5.533160613823959 0 0 0
199 3 5.652567433890123 12.417455801521529 4.751829005775463 0 0 0
204 3 6.860905516466987 13.50689932014851 3.8499456487794914 0 0 0
210 3 8.11917626259128 14.917845235403151 2.8707208956604564 0 0 0
31 1 9.433372536469474 13.222600107016463 3.638164805686678 0 0 0
1514 2 9.032595143242926 15.079788119625874 2.5522921969690406 0 0 0
1516 2 8.152135983938955 13.977991522138701 4.834970381670145 0 0 0
1606 3 8.214104973111157 15.511139526661756 5.147328129312874 0 0 0
52 1 10.23891914947477 13.878228845284802 3.4485686385160124 0 0 0
105 2 9.64853640769103 12.939378901897197 4.754794995489827 0 0 0
205 3 9.831329935316983 14.574728953551558 2.5376085259739587 0 0 0
207 3 9.877405689067267 15.47283708832153 5.0479465534508865 0 0 0
253 3 11.066328439348913 11.569196118099894 5.265013528651022 0 0 0
258 3 12.067670431671338 12.2609183404361 4.021414121064877 0 0 0
264 3 12.791149208019801 14.741548211355335 3.4810760301672197 0 0 0
1661 3 11.198839689378145 15.023136803491049 4.988043882576471 0 0 0
49 1 12.488271437112813 13.120131077408518 2.7844899755217836 0 0 0
259 3 15.286139295837975 13.442073548477676 2.5700040092441507 0 0 0
261 3 13.791993484539052 13.365216029368973 6.420308440331302 0 0 0
376 1 15.233028533223406 15.188623376217755 4.176553987392596 0 0 0
427 2 15.328348278084903 13.029482699216056 2.9223066185273883 0 0 0
429 2 14.689851490157963 12.13939767342119 5.440324905750645 0 0 0
505 3 14.68837203311854 13.953538977138829 2.795814666049516 0 0 0
1534 2 12.638530223363576 15.371330480907442 5.43175957997256 0 0 0
1660 3 13.62095100692152 13.895904804697418 2.74708913341091 0 0 0
373 1 16.949035983934834 13.080981184290941 3.154078978843936 0 0 0
510 3 14.966895315118048 13.776099481624797 6.308471212004315 0 0 0
516 3 15.953750697603565 13.86471179595632 2.606412656845807 0 0 0
394 1 19.029148729040703 15.330754065218974 4.190152408740374 0 0 0
445 2 18.3389493579494 12.564623987180477 2.362297069957861 0 0 0
447 2 18.705336130398408 12.330884936448285 6.255074197132653 0 0 0
511 3 18.9827679928721 13.160330918821257 3.7268691919965593 0 0 0
513 3 19.057059348781795 13.137382872704544 4.540735461227094 0 0 0
1858 2 17.716043582296003 14.98139046079716 4.76575007525506 0 0 0
1912 3 17.565012907993918 14.40807819469457 3.877399469150286 0 0 0
559 3 19.434101883825722 12.629768135508312 5.006367295734879 0 0 0
564 3 20.437846151947586 12.808906170451843 4.791812573893027 0 0 0
570 3 19.615319400460457 13.179095774980539 3.4897191809912194 0 0 0
391 1 21.007472799309276 12.860052004510617 4.199938622590753 0 0 0
565 3 22.06147384165759 14.791149349615416 3.3973440915368878 0 0 0
1876 2 21.410444094495606 14.955824488551542 6.259931358804912 0 0 0
1966 3 23.247459603903124 14.691320973066965 4.332094506989105 0 0 0
412 1 22.65916818260007 15.271688984914615 3.41159186016499 0 0 0
463 2 23.126741872837563 11.923964388826013 3.176245866236858 0 0 0
465 2 24.463788523493747 13.486552203776185 6.1485383142437815 0 0 0
567 3 22.966844085433646 15.10907935094302 6.028464675824932 0 0 0
613 3 25.538234483498336 12.859814206353656 4.02798474886332 0 0 0
409 1 26.143382937791692 12.033712322022525 3.147983582067335 0 0 0
618 3 25.59256443808461 13.38592878062707 4.662130728568386 0 0 0
624 3 24.53351057442933 14.090740214724232 63.66917460850472 0 0 -1
1892 2 25.902975874979667 15.696675270454177 64.06321193247187 0 0 -1
1894 2 25.030626555652812 14.298350338254508 5.061145393753603 0 0 0
619 3 27.24995883235516 14.720681811825635 3.5329236660045 0 0 0
621 3 27.040609121330046 13.36114799679152 4.292449852752121 0 0 0
736 1 27.34528561510792 14.294948808040683 4.3290173892826145 0 0 0
787 2 28.14995085245652 12.533272516194112 3.384319758782447 0 0 0
789 2 27.162997640100876 12.542925455346134 5.269566241231314 0 0 0
865 3 27.809688894827463 13.683438436664728 3.0223911939735215 0 0 0
870 3 28.91510924123139 13.194626669063135 5.87012989570588 0 0 0
876 3 30.38565280001248 12.758897949955744 3.3903986734933538 0 0 0
2020 3 27.497811303300868 15.660851560686728 3.6490032109946897 0 0 0
25488 4 29.172728240200883 14.74127828457162 4.392993119542952 0 0 1
733 1 30.621428164349766 12.73298832068218 3.032850434721446 0 0 0
754 1 31.941615300100235 15.161000361005991 3.599673902597379 0 0 0
807 2 31.775034919734818 13.374001084959977 4.6268363908048595 0 0 0
871 3 32.55528467835789 13.18135336868015 2.412402429234689 0 0 0
873 3 32.969217869255544 14.224522971619212 5.059326952476146 0 0 0
919 3 33.32668697434117 13.964942064029366 4.675967561217347 0 0 0
2216 2 30.443722421924452 15.271565998627617 2.4381627839631745 0 0 0
2218 2 29.831714676901257 15.085733376013268 6.005734155559033 0 0 0
2272 3 29.713582421256337 14.187814924388315 4.505120795301709 0 0 0
924 3 32.64010854925799 14.684274934513189 6.460423029220702 0 0 0
930 3 33.61553560213077 14.063756554447753 63.829799944309585 0 0 -1
751 1 35.05591595669051 12.22097802165538 4.926108488523679 0 0 0
772 1 36.21835867372374 15.305439592811567 4.87850733726073 0 0 0
925 3 37.15059991954104 13.412315697923434 3.5978831272603062 0 0 0
927 3 36.2421703195169 13.715778392296262 3.9704936963774533 0 0 0
2327 3 33.64836899686828 15.62411355661887 5.6064289534528235 0 0 0
2234 2 34.297243999789714 15.735782517577515 2.702200583642874 0 0 0
2236 2 33.87011015023735 15.472852178268857 5.928478814698066 0 0 0
2326 3 34.57811825809665 16.267685008365966 4.581608161647168 0 0 0
823 2 37.596265565267636 13.071345369282112 3.12838784984557 0 0 0
825 2 36.96093695314847 12.22655599679466 4.449091866028276 0 0 0
973 3 37.56272259165115 12.96158706533514 5.093388763451449 0 0 0
769 1 39.25180541090998 11.909820177390012 4.550732721365627 0 0 0
978 3 38.935619166810724 13.657856616874657 5.812336227125259 0 0 0
981 3 39.4269583870695 13.202724348542763 6.285958466221997 0 0 0
984 3 37.47411413401851 12.512764131281527 63.103760405886746 0 0 -1
2381 3 36.24114572774789 14.698115320585353 4.641964168333949 0 0 0
2252 2 39.584438197602346 15.952743405521451 2.3540769561658523 0 0 0
2254 2 37.9015409356498 14.948786668092595 5.277146050592351 0 0 0
2380 3 40.307407151566466 13.898277881931303 4.269032717456994 0 0 0
979 3 40.63313417483917 14.777891609408137 63.470050855079705 0 0 -1
1093 1 43.15637606582815 13.877519608034545 3.3367737575156573 0 0 0
1096 1 40.58986194523411 13.7399925754275 3.5150352418263937 0 0 0
1147 2 41.96407566334416 13.345084267773016 2.6674157410580293 0 0 0
1149 2 40.392818468547375 12.24567928150789 4.89310932419472 0 0 0
1225 3 42.03474252505032 12.905587287771482 3.745788525727063 0 0 0
1230 3 42.69752783738644 13.8133691039257 5.6253788103234275 0 0 0
1236 3 41.712671377342254 13.195114461966392 63.39740652003492 0 0 -1
2576 2 44.05271194579871 14.211366196741926 3.136547406649848 0 0 0
2578 2 42.21449191056586 14.684663372001001 6.105603750195451 0 0 0
1114 1 45.67802848602064 14.20467820740321 4.724727157976253 0 0 0
1167 2 46.07613316316889 13.106102331944474 5.737081688196302 0 0 0