LAMMPS data file via write_data, version 2 Aug 2023, timestep = 600, units = metal

2880 atoms
4 atom types

1.4241967663856325 26.595803233614376 xlo xhi
1.4241967663856325 26.595803233614376 ylo yhi
1.3499880840543437 25.21001191594558 zlo zhi

Masses

1 24.305
2 28.0855
3 15.9994
4 4.002602

Atoms # atomic/kk

1 1 1.9430025691179296 3.5080095791435535 1.528249380914005 0 0 0
58 2 6.13093137384706 4.1529314394500725 4.50503081666993 0 0 0
113 3 5.031551895209358 21.32089247479714 22.91388983456565 0 -1 -1
114 3 26.40993222520011 7.495139985900978 3.1723287168722374 -1 0 0
118 3 5.589760916019595 7.108612361965389 2.655415855044365 0 0 0
1725 4 5.534346390012113 3.034534812741359 5.495340146345959 0 0 1
120 3 23.113223129279348 4.5396737717472675 7.9734791056907 -1 0 0
754 1 2.6882383566754715 4.935887823471459 24.142528484557722 0 1 -1
117 3 7.217282898354557 8.847682779222925 5.744130391663398 0 0 0
1721 4 6.251190881228698 2.3003786243024114 6.0334363448938335 0 0 1
2450 4 12.762358496799887 13.514312746538678 4.35739510727186 0 1 1
164 3 11.939563008756314 24.66341497942002 2.628975409269354 0 -1 0
163 3 5.531404847548776 23.17817966261636 5.3840076501678675 0 -1 0
167 3 8.055983156364547 24.619314180860407 3.0857043950487753 0 -1 0
168 3 7.744985892560045 26.097822646463335 3.9265802122619737 0 -1 0
73 2 4.900869296191965 2.722093950053458 5.847811162198228 0 0 0
75 2 6.574868358845843 8.228540479613933 7.8699523929915625 0 0 0
1764 4 6.882644466821773 7.001828009022592 2.391096856664118 0 0 1
166 3 9.257496840821316 25.136713214742173 22.232881655730612 0 -1 -1
172 3 7.16593798254818 25.338215446564618 2.02268970115303 0 -1 0
217 3 7.115649146442844 2.483877138375752 22.03528336472478 0 0 -1
772 1 9.129868282442827 25.744382471814717 23.75938279009511 0 0 -1
1724 4 6.718125871270655 8.414730715401063 4.431748509907622 0 0 1
19 1 6.744332066449445 4.969252290192191 3.135109743459296 0 0 0
76 2 7.640747150303614 2.4639513931486765 5.789149167534663 0 0 0
169 3 12.082102894466068 2.210820806136916 2.6782217023127353 0 0 0
171 3 6.471135833308875 3.954849115017011 3.7296154288701704 0 0 0
184 3 7.279785285774112 8.134426838138918 18.232102929663775 0 0 -1
80 2 7.987794202707505 3.911451430020937 24.455252924469274 0 0 -1
82 2 4.594972505334683 5.399877121959712 5.395725135514438 0 0 0
93 2 13.0827851309563 4.1792532509790234 3.829780785068767 0 0 0
220 3 10.279988757293932 25.139200581523845 3.0747651261859126 0 -1 0
222 3 10.019932538190341 24.358548324921614 1.5903183411807642 0 -1 0
226 3 15.657968342573126 2.5754484401172246 2.5043692420199486 0 0 0
228 3 13.029787762128533 3.2259739083551358 23.81209222329006 0 0 -1
37 1 8.785773419995238 2.9673797302079388 23.060522283544643 0 0 -1
94 2 10.653821449539562 3.267803211806561 9.195999194186273 0 0 0
469 3 10.523758679463803 25.872345627022867 1.6621768613953605 0 -1 0
1756 4 22.246967924116788 2.0823660311769654 1.5130038756304136 0 0 1
239 3 1.853055531858037 6.01237998205321 5.220420766642613 0 0 0
225 3 12.544882357207909 11.684837338917841 2.311334503257538 0 0 0
364 1 12.984063363661729 2.891353748719301 5.586598213087827 0 0 0
1762 4 8.768668658706204 4.83360353145595 5.174425555073191 0 0 1
1226 3 17.135285468074407 21.745309589406652 4.378989649309369 0 0 0
471 3 20.546837113908907 6.321918040621823 24.7366145052157 0 0 -1
361 1 16.565733446029473 1.438484145249965 1.3677092545900318 0 0 0
415 2 16.23311290065881 3.0967005911629393 3.333445675141827 0 0 0
417 2 15.541653115956215 9.918274787788024 7.951767149140474 0 0 0
418 2 14.06278088991661 2.701096728614736 7.482548846063943 0 0 0
472 3 10.651287917443266 22.625828711028134 2.8667781085617037 0 -1 0
473 3 14.233839101450753 4.814675809681526 2.438227233553665 0 0 0
474 3 14.130145761136545 3.814967952580335 1.632644057041215 0 0 0
2085 4 13.162267578352372 2.4707552069777368 4.319098307345325 0 0 1
478 3 14.979051062286109 7.301386996475163 24.918607187216757 0 0 -1
480 3 18.057745046784255 2.7342109958056495 4.225004096270394 0 0 0
433 2 18.999074898023018 4.9251439509650945 25.198699228476652 0 0 -1
435 2 17.309729160217103 2.916940358411307 4.49609438761446 0 0 0
223 3 18.25441068218469 6.237791621147265 2.064628746807623 0 0 0
424 2 18.091359846687517 3.7932594423277304 7.519944591378959 0 0 0
490 3 14.857827718469238 4.630212571657275 25.005321987516364 0 0 -1
477 3 16.519366972021118 8.223512793554358 3.7955685518503497 0 0 0
1280 3 23.397485008352575 3.997580048708821 5.352134349474195 0 1 0
523 3 20.512652471861493 9.97987404082978 2.0915354555471124 0 0 0
527 3 19.833590236974608 5.273077304671256 1.5019522163837604 0 0 0
528 3 22.55162194935636 5.1242833490993185 1.5854726143084157 0 0 0
534 3 13.28270573892855 23.51367679059672 4.130516338585709 0 -1 0
379 1 19.391487316595672 7.170672309193775 23.368236353359265 0 0 -1
526 3 2.3772275190666163 2.586771828223691 25.179792673556125 1 0 -1
532 3 20.336407389154054 5.456011805347068 2.2473344167477576 0 0 0
453 2 22.160582113929898 5.106833846979606 6.568210057272242 0 0 0
577 3 25.740991887773824 9.27991386823498 2.824330391468906 0 0 0
382 1 18.244043070995296 6.071322294452201 21.429871842374915 0 0 -1
531 3 21.764663512938647 4.929592152830454 25.059225205057114 0 0 -1
442 2 21.846402382617775 6.513024379955067 6.129469818350161 0 0 0
1334 3 5.138909766799238 23.57741786073594 2.6584734013526816 1 0 0
579 3 5.706805224664784 24.793918272284415 3.838063296717058 1 -1 0
57 2 24.177985815268187 26.46098279783334 5.8628616258344115 -1 -1 0
109 3 2.12413065153919 24.212219795214203 2.0308925594165586 0 -1 0
451 2 25.30568098913438 25.58336773382065 2.288563605416405 0 -1 0
581 3 21.904051387940456 4.0569644723807174 1.8305269550628667 0 0 0
397 1 25.071765646739095 4.26788103934949 3.098861357878219 0 0 0
454 2 21.83816704235737 5.093272561638275 4.7161727021457125 0 0 0
580 3 3.6668460816203954 25.699687885113654 5.033205651954266 1 -1 0
582 3 20.78501480391948 5.519063785292224 24.47964879407431 0 0 -1
2086 4 25.51814808598641 3.1163984744860977 4.443799492014261 0 0 1
4 1 26.32199911067677 26.396615363353988 7.636538821545863 -1 -1 0
585 3 18.931190551590696 5.740058137842894 25.18877074527501 0 0 -1
70 2 4.6394384226934235 7.449691869096517 6.9794469170660225 0 0 0
133 3 2.9550838587753345 9.696626110107735 1.676731210936373 0 0 0
135 3 4.292165646240228 4.434633643205412 4.809966016514289 0 0 0
81 2 5.0965623153860315 11.706964052110997 6.389675186388196 0 0 0
129 3 2.405126926709793 5.505284213933734 4.260670568881989 0 0 0
130 3 2.251621055886339 8.345054062215477 2.6594755358947224 0 0 0
131 3 1.505163247699782 6.43394726448889 2.3837139441209714 0 0 0
62 2 8.565159684342762 8.363404161074111 1.8161348067107002 0 0 0
64 2 5.545363886834244 7.496005404642468 2.638401184086853 0 0 0
127 3 24.7592638002929 6.604665604727426 3.282807308628429 -1 0 0
132 3 12.166772119844781 11.123790414686669 19.60950533828755 0 0 -1
138 3 2.2181510756062712 5.450665010667946 4.067848554104853 0 0 0
148 3 11.807230760341929 9.76262767682586 23.041009127427984 0 0 -1
7 1 4.478657658134691 4.688688633388487 21.965525800585578 0 0 -1
63 2 5.396046745806854 12.270782196731426 2.482446244925691 0 0 0
186 3 6.606697403334813 9.774352671694949 3.4241454806807736 0 0 0
187 3 7.503103709454829 11.398760563265244 2.149455951518929 0 0 0
189 3 9.497159300174207 7.807304097919136 24.466808351011927 0 0 -1
25 1 8.260916934283452 6.871615458512703 4.039858283692395 0 0 0
88 2 8.149414799080777 13.871428654954276 5.79040822839647 0 0 0
99 2 12.613648284726048 8.430543655817075 22.681168432676348 0 0 -1
1740 4 12.367349297142095 6.451710512399214 5.3999591449444955 0 0 1
1714 4 7.229052115535638 1.8264017944074893 6.731935299392677 0 0 1
182 3 2.3390658178392547 8.155470866707267 24.747752754106163 0 0 -1
181 3 2.5413413500264124 8.181405161148984 1.87688183051372 0 0 0
185 3 5.501370032281974 7.6140048099136 1.6115012194557063 0 0 0
22 1 8.461944202677966 2.7444203135162635 4.5407404594145175 0 0 0
190 3 3.456849027792322 10.546703519528283 23.855085795824188 0 0 -1
40 1 7.516569218901089 5.919122645579392 3.057922705946877 0 0 0
1720 4 2.6770300074074065 6.061677123702871 4.692442720384819 0 0 1
97 2 9.98952420194544 5.952217038450589 24.592489521215064 0 0 -1
240 3 10.95356098737587 10.203656004380047 5.144042399246095 0 0 0
246 3 15.38141705859222 6.4429390169262035 23.60575116423844 0 0 -1
43 1 10.330029775115882 7.058574095318781 2.488659873938905 0 0 0
370 1 10.009898784357008 6.758033062149483 2.8667774298886055 0 0 0
183 3 11.023982113137492 10.42030350974018 5.232475288674813 0 0 0
235 3 13.619991082510118 9.907648284282862 3.938456782602432 0 0 0
238 3 9.892006210511228 4.209642913486909 22.726317993670946 0 0 -1
244 3 12.291108298715216 6.0972949768123925 7.8653047908857 0 0 0
100 2 14.199901693336935 8.496893001621036 24.835829050164854 0 0 -1
1718 4 16.003072445016592 13.786533365359196 4.662873031015261 0 0 1
1717 4 6.380448389596225 5.279708086117494 8.20844082291696 0 0 1
1747 4 10.582651950213057 4.649041565023115 10.835396993211043 0 0 1
243 3 18.435326637743046 8.80990778511607 2.978513617022143 0 0 0
367 1 19.50346716209468 5.2859479411824 20.57378706782675 0 0 -1
423 2 13.08533596534255 3.0566457355091075 7.3901173188185565 0 0 0
430 2 15.92713462534104 8.730900393558528 3.8597630536565823 0 0 0
492 3 15.554530600999273 7.7542898603646275 3.479110437084395 0 0 0
498 3 15.836277063796475 9.759853850272577 4.167046774736602 0 0 0
509 3 15.934219347257631 12.183437622831754 1.6261763273578458 0 0 0
439 2 15.461578588594387 8.540990640227845 1.6210402747999926 0 0 0
493 3 15.200761568969495 7.486830253116142 3.8443188496409246 0 0 0
495 3 13.048561077877034 8.773806689536713 2.8978479361989593 0 0 0
2106 4 13.422405656708898 12.038487237445354 3.1442513899414153 0 0 1
488 3 17.045247396495093 4.828293757367833 24.492759048201176 0 0 -1
487 3 16.338874363839246 7.610114476692493 1.8276346514399946 0 0 0
491 3 20.89499458480165 4.540167113329644 6.6695124660470535 0 0 0
496 3 14.70240092095152 3.7322924444017045 24.983142762668667 0 0 -1
541 3 15.560788348347117 7.385391463824352 2.422934028463539 0 0 0
2079 4 10.675940289934493 1.9258949016935407 21.787673746193192 0 0 0
2082 4 17.474326208624106 11.75149173052989 7.291508724108806 0 0 1
388 1 20.05867499026818 6.964845390441393 6.108695297455799 0 0 0
441 2 19.57772758151056 5.973092143119439 3.8532647599459433 0 0 0
546 3 19.68555495078664 12.620548867048333 6.683257071153222 0 0 0
552 3 15.515891759511327 6.5239550394602235 2.8321410645956746 0 0 0
385 1 19.771235760217145 8.64247099905326 7.746963115659283 0 0 0
446 2 22.389859651406198 10.629706102722722 3.662470850824687 0 0 0
448 2 24.20241351340085 8.48407784253889 4.930589818876412 0 0 0
549 3 21.88517434547842 11.84724830304226 2.0479921765548283 0 0 0
562 3 24.31032454534882 5.034585144328942 2.312123902826041 0 0 0
387 1 19.611457239949125 8.519811571542544 4.915692426839489 0 0 0
545 3 19.137272490198832 3.3280161785118803 24.29628100547409 0 0 -1
544 3 21.034264008020777 9.686038737838611 24.001340918884754 0 0 -1
440 2 20.895523100113067 3.672064695093747 3.126650340588813 0 0 0
2108 4 7.751373464933114 3.4965749660102 5.784165212954447 1 0 1
406 1 17.082364354305696 7.463459531168489 7.2686879616423195 0 0 0
459 2 24.528073113315408 10.974116111001063 5.284730982982444 0 0 0
403 1 22.641970310188434 5.926500144170498 23.706832677073606 0 0 -1
601 3 25.026201145384583 13.414688179036679 23.92791380733098 0 0 -1
603 3 2.5641703658169606 3.4355539561843718 4.677579180327558 1 0 0
606 3 20.759574147471902 10.82724317957789 22.894373616647627 0 0 -1
410 1 4.510145204100467 5.802008805228365 24.194095417307434 1 0 -1
597 3 23.833321508597194 4.504496395332212 1.7313881160953777 0 0 0
400 1 24.45206398213091 5.92209910573321 4.7017515506983285 0 0 0
595 3 25.922750873797604 6.162609408889806 4.663958684110874 0 0 0
599 3 23.74097320440606 5.402418169735975 2.3778234996244088 0 0 0
460 2 23.878778461388663 7.18375575631819 4.513488127911981 0 0 0
598 3 23.866556001482543 4.762146469447544 5.318763159966284 0 0 0
604 3 24.645755534616242 6.4248947923008295 1.7772210182061527 0 0 0
2107 4 4.7173732563503865 13.053073591524555 3.812524698928254 1 0 1
2110 4 2.6539744399935277 12.6403295858568 24.079307977618537 1 0 0
832 3 6.123317570639454 16.36785112330819 2.1089903840431865 0 0 0
68 2 7.617871469431246 12.788281399563319 1.6915513529173398 0 0 0
145 3 3.1993767427437514 11.898378698533344 23.286236411407117 0 0 -1
150 3 1.49420493278163 11.456038312320478 24.71403850737838 0 0 -1
154 3 2.311842179543124 9.47425959167646 22.0497583277775 0 0 -1
13 1 5.585252147438675 11.296810355336136 2.913415665289806 0 0 0
151 3 5.271650588499297 10.636405550294542 24.74362271440248 0 0 -1
153 3 8.337455635812116 14.674561115696187 2.409585574516863 0 0 0
199 3 8.532002760851093 18.040030452215575 2.246739782540754 0 0 0
85 2 6.33400421819536 11.10946626632051 2.0954913785303897 0 0 0
87 2 3.820844850489775 6.59891713543356 25.067813184140814 0 0 -1
15 1 2.17176602764369 9.748904196607239 6.0174140561844265 0 0 0
1713 4 24.02400594446172 11.382834506705493 2.413430463949778 -1 0 1
1118 1 3.214584128123175 12.020876072953563 25.1773642098464 1 0 -1
149 3 26.384809380564427 7.027197359136168 2.8334866196501745 -1 0 0
10 1 5.080074289625113 13.260178857188484 3.3258522548385043 0 0 0
796 2 5.731183925689053 11.203543896851613 3.5654960787827688 0 0 0
28 1 10.466789657367764 15.936930709340292 2.3245711314028283 0 0 0
202 3 6.859573808219829 8.814355289697392 23.91438116320877 0 0 -1
46 1 8.107054625922316 13.586828362363898 3.9719088062215575 0 0 0
86 2 6.2304376381513515 11.890861496068226 3.435129705660199 0 0 0
204 3 5.87850098685488 11.970312572499086 23.792719628120796 0 0 -1
210 3 11.726530334293354 16.923678665178556 4.274677941079274 0 0 0
205 3 4.807445405039656 14.966277395793462 23.558928784784154 0 0 -1
208 3 5.172735040457617 9.398839374307318 23.316762828459193 0 0 -1
31 1 9.94098533181584 11.908036124511309 4.240062799912685 0 0 0
52 1 5.454680204645915 7.342893748529591 3.5436556671921156 0 0 0
105 2 4.833494314817103 10.809804442136 2.0825789114477953 0 0 0
33 1 9.862667918494097 12.809010694420962 2.629522224471482 0 0 0
1712 4 5.938990262953004 10.982837871254228 4.294270859702705 0 0 1
812 2 13.43469682840141 10.98570579901866 3.3117643062733353 0 0 0
814 2 12.592350179800725 12.995781523064197 6.307537215369312 0 0 0
256 3 15.548017273878367 13.407524975027695 24.483096264728143 0 0 -1
106 2 11.607042874916692 8.38301160968245 2.4272171832015474 0 0 0
253 3 12.581762192836374 9.842997395041976 2.9038331745207446 0 0 0
258 3 18.74994820070927 5.437054098127268 3.5974745179042684 0 0 0
261 3 11.53284531268097 10.33291788965155 4.105855579389203 0 0 0
262 3 16.57070676973686 7.544954601134307 3.4947300806177117 0 0 0
264 3 11.892895026651953 15.448909938457948 7.162087808815363 0 0 0
49 1 8.357956373714325 13.181101933699832 24.58589160483982 0 0 -1
429 2 14.966727254692035 12.485913741035676 4.061111704837369 0 0 0
505 3 13.817728900678798 10.70353658561009 15.139323301478258 0 0 -1
1711 4 3.0860824209864077 5.50218281087275 3.9880481973556092 0 0 1
428 2 11.74223770108994 12.274156864943398 1.9206439991831028 0 0 0
508 3 13.802169904437138 7.302730640861537 3.9118359202007675 0 0 0
259 3 16.767219008402307 11.469445487637838 22.955388286100963 0 0 -1
373 1 12.86412863211476 10.80210129082601 22.898961333552755 0 0 -1
516 3 16.24733753374005 10.771367682357644 25.119939776035338 0 0 -1
427 2 15.199028125862506 12.795516501823602 2.8529634497681875 0 0 0
510 3 13.169619796733611 11.144000942925018 5.721236560381033 0 0 0
513 3 5.398488639261055 9.321345260363008 7.614737215409461 0 0 0
447 2 16.992371341402574 13.276867393358263 1.9717527857922164 0 0 0
511 3 21.38295952093729 17.35266806457902 5.672275137322232 0 0 0
1732 4 13.948322053270939 9.75121522504312 1.552556226063844 0 0 1
2073 4 20.481875174499365 4.1359198465807845 9.96969988822217 0 0 1
563 3 19.035793258238833 14.34225830124096 9.287995773265571 0 0 0
559 3 14.280587528459892 9.971110987381206 24.524418957152097 0 0 -1
564 3 19.35651398438899 10.63061487001461 22.90019018370638 0 0 -1
570 3 17.49855241697106 13.675252992944914 14.409198505391972 0 0 -1
391 1 19.700999698224045 10.182642443617633 4.949844747887923 0 0 0
565 3 23.559270261728045 12.251023427695037 4.843724059201147 0 0 0
463 2 19.945083744021503 11.401271352113511 5.105515403743174 0 0 0
568 3 24.73141211199679 14.855329595692108 2.288246088428602 0 0 0
2807 4 19.643640812988103 10.265645167075268 5.836442641805237 0 0 1
507 3 17.182528687118882 12.855214743409963 3.8415509788485256 0 0 0
2806 4 22.51507879997282 7.118429639535897 20.069333365279167 0 0 0
2094 4 23.675609040686197 13.138314613733614 22.483714538883792 0 0 0
542 3 25.40184887748879 17.31804871363964 3.7825272559099457 0 0 0
1174 2 23.271227083956667 12.284170563512372 2.1296462929310773 0 0 0
617 3 20.856656282219973 15.538668846700949 3.9406614269204248 0 0 0
466 2 22.494034988576395 13.046116406522982 3.03065563615322 0 0 0
616 3 16.02168727235067 13.26690013290785 19.38398349373219 0 0 -1
67 2 23.64586571688337 9.225332067903182 3.425768052990721 -1 0 0
69 2 2.0692368013668965 10.875503248129839 6.362269784354284 0 0 0
465 2 24.01928992591332 14.487475773789347 5.817237220609069 0 0 0
613 3 24.74112106149032 13.630774003928492 3.1085215592869297 0 0 0
409 1 24.870323702130527 10.618348404562456 18.141015802825752 0 0 -1
618 3 22.866397498944615 14.54267362206867 4.343607807811341 0 0 0
619 3 24.039260229505793 15.404320689051428 3.7427540085072586 0 0 0
621 3 22.519035177413613 11.456117292090166 2.3305537018481326 0 0 0
622 3 2.569242778543063 7.558658400410897 2.258745288430329 1 0 0
2098 4 4.451478531567819 4.981699000722946 2.6150186516469978 1 0 1
829 3 7.594340333295393 16.04445851548818 2.774118246353453 0 0 0
833 3 22.611154833504536 13.077041788908144 4.377737751799149 -1 0 0
834 3 5.260522033017792 17.896012942217837 3.311809055510509 0 0 0
838 3 26.065025725750772 15.710210338845007 21.129654334920406 -1 0 -1
840 3 4.333066767101059 21.214778706897718 2.5587512059176807 0 0 0
721 1 2.8301375614815614 16.1686571282239 4.033296279621319 0 0 0
883 3 3.127319980273583 18.835771127973892 3.042028180206941 0 0 0
850 3 2.892997261648201 15.981417666277672 24.50141274943014 0 0 -1
835 3 3.8459199254338876 15.59982040522837 2.345713737073696 0 0 0
837 3 8.816099774476317 11.350224057241311 4.727279608267729 0 0 0
16 1 24.896041077280962 14.818342238597747 19.905935298769705 -1 0 -1
34 1 3.983693922104797 13.490610288169831 24.00645646266871 0 0 -1
777 2 2.0335941376131097 14.748509526041735 10.476430220533244 0 0 0
778 2 3.0401040725494104 15.776459986168277 5.919027568279277 0 0 0
2442 4 2.4137237732768613 13.162370679860976 6.602517413015094 0 0 1
2445 4 5.394112400676061 12.39742253100978 5.268495979189241 0 0 1
2448 4 11.599462946559811 23.08868488717645 5.160955486369629 0 0 1
2478 4 6.074099536404828 19.143641348846167 4.845536184482872 0 0 1
795 2 8.918274926013286 18.196403695763678 6.803833415173988 0 0 0
887 3 9.589617807982801 17.46470934157618 2.583439146917362 0 0 0
888 3 9.538371606498044 16.61479604128108 4.006425800614833 0 0 0
894 3 8.934125925488242 21.596150284290403 2.8714082464352346 0 0 0
813 2 14.504451993503851 19.125318438144888 5.753066954086312 0 0 0
886 3 8.633967815907177 17.263818363511678 4.331968260438628 0 0 0
892 3 5.639444753120367 17.004355164853706 4.0352591030325495 0 0 0
739 1 7.280743482087374 17.691482744033188 22.484920075543233 0 0 -1
937 3 3.6870681439944257 14.526318916102511 3.371281924049493 0 0 0
742 1 6.7511755006530265 19.567794711549787 2.901384976990555 0 0 0
891 3 5.371990672768064 17.250612197454878 3.3981244633422696 0 0 0
904 3 14.615975220116628 17.91036459065986 22.275508942634822 0 0 -1
207 3 10.052244937742175 17.731315657044334 2.4481103994903624 0 0 0
741 1 5.559959067251423 10.795236560612135 2.3247206674224423 0 0 0
2480 4 3.0777019471599525 13.275259076187412 5.614696081369537 0 0 1
2444 4 10.39106296302268 12.04376503016055 5.048419644559825 0 0 1
811 2 8.638976593563918 18.480981027738636 2.161517885277839 0 0 0
941 3 11.048390785657773 17.039208983233017 4.1305998874877465 0 0 0
757 1 13.819989397831153 15.40904144995303 1.9899412979822075 0 0 0
940 3 11.121997446557522 21.538603736167325 6.479058135922394 0 0 0
942 3 6.478122814943783 22.980400172573212 19.398014659248368 0 0 -1
946 3 11.526922985300976 13.817508873183952 3.642689924368056 0 0 0
948 3 10.533321883046078 18.77117876944603 1.9276570610747519 0 0 0
1189 3 13.180475177102464 12.338936075547428 21.519732196059433 0 0 -1
1135 2 10.662080710171407 13.961765182398343 22.27821641694071 0 0 -1
1137 2 12.548796216802677 15.31075632885715 4.009990884332073 0 0 0
760 1 9.291125678574256 14.48517433145656 3.4420983689678395 0 0 0
945 3 12.604906137298782 15.16121996139873 11.678545114848527 0 0 0
958 3 6.465448747840919 18.15010370862251 3.986455327558937 0 0 0
2440 4 2.8521674012398064 17.179227242539927 4.598715267749751 0 0 1
1081 1 20.850875020927525 15.509812534456117 3.210169056340706 0 0 0
1192 3 14.6570083109921 15.010541396957095 22.13706991907045 0 0 -1
1193 3 12.639959149565781 12.66411357032443 2.400685320539286 0 0 0
1194 3 14.169231563016895 17.216816056925694 5.374525970101013 0 0 0
1200 3 15.815216349969313 20.616616229679224 6.393114468559951 0 0 0
1138 2 17.064927701359657 15.626452406769596 4.367707471151773 0 0 0
1155 2 15.723309585324367 17.04388922188062 1.7706897118801612 0 0 0
1210 3 16.90777579700213 19.789771417727238 23.13508521504878 0 0 -1
1142 2 16.145740416642212 18.007269713511874 24.192916233584683 0 0 -1
376 1 13.83858794195552 14.17531722408918 25.171789384168196 0 0 -1
394 1 18.39383856692026 11.487755354509023 4.583982354311474 0 0 0
2841 4 13.425684756457205 13.87399769864322 8.288982261642431 0 0 1
1191 3 15.363037482737093 20.605771812156313 4.744341601811865 0 0 0
1190 3 13.650892714401499 15.904043010641663 2.965211088206537 0 0 0
1153 2 16.255244587393385 10.34240261032879 2.6600611687431233 0 0 0
1243 3 16.856523811761782 14.633716356685223 24.211731077387384 0 0 -1
1247 3 16.203685543476496 15.719605534857331 7.704091128276195 0 0 0
1248 3 17.09976312739346 19.741606488276766 4.0487961447100655 0 0 0
1254 3 13.495442277801201 19.954080039789787 21.043737644132438 0 0 -1
1156 2 21.324501062620826 17.395066770843428 3.309654257895045 0 0 0
1099 1 19.107054252264362 16.98332928769433 25.053767825555312 0 0 -1
1246 3 22.90777660004465 13.20424769188736 6.967388550232227 0 0 0
1252 3 21.173650245965426 12.150012828208236 3.96737419898312 0 0 0
1301 3 23.227160657410025 12.650587993218096 4.508325291632835 0 0 0
1102 1 17.564773961119364 15.466386117596631 3.099034457562904 0 0 0
1251 3 22.158732519651814 15.753182708732412 23.825385451689034 0 0 -1
1264 3 13.341608845178428 12.452617910947957 11.13678868119651 0 0 0
412 1 17.665136152800855 16.36344638184314 24.824405875520295 0 0 -1
567 3 25.488088574590293 14.069626666884897 3.9638631258481145 0 0 0
560 3 24.93080191492482 13.621591230859005 3.3621360773268423 0 0 0
2804 4 12.829524392531523 9.963635000292278 4.858582194750483 0 0 1
2832 4 21.66549741786337 15.672005944955737 9.162754630078613 0 0 1
2801 4 16.925919349232878 10.65900382611298 2.961839844796451 0 0 1
1173 2 1.5333927674669021 16.051876450652145 2.5260870575582377 1 0 0
1297 3 23.39754955870167 19.035066537855357 20.530091161176916 0 0 -1
1172 2 22.972750231430624 17.96400982217206 3.271309650535326 0 0 0
1117 1 24.026352825925535 19.26609246858066 3.357521828338314 0 0 0
1300 3 23.420282410055975 12.100523802215916 1.624915967079364 0 0 0
1302 3 24.994546334341983 13.674790008347784 2.710871577985618 0 0 0
1306 3 22.31536172047366 12.255392757971295 3.4653400751378762 0 0 0
1308 3 22.932139839912246 18.84382643668605 24.637029060115392 0 0 -1
724 1 26.08486182705466 18.251333694028716 1.3967902485108787 -1 0 0
1180 2 23.29682313069597 14.730950412640942 5.167795903121329 0 0 0
1305 3 2.1355777999355627 13.218227759476354 2.0600179376989454 1 0 0
849 3 26.454841369721002 22.85646107528369 3.5959015556643843 -1 0 0
784 2 5.312929089828055 19.70104115800305 2.5693293729924958 0 0 0
847 3 22.220823874803443 21.636220914764507 1.7361481256557116 -1 0 0
851 3 6.713195246648419 19.27991123276638 24.72975547902342 0 0 -1
783 2 2.542485589966623 17.220226294736197 6.6836031400524485 0 0 0
790 2 2.3473116820595834 19.593617777783066 3.478350506115383 0 0 0
852 3 1.6997546456071424 11.560253185053849 5.697697696440315 0 0 0
858 3 23.86591108318477 22.7662653055946 24.377283073430206 -1 0 -1
868 3 8.312085676123878 20.55291814671986 20.434023229467574 0 0 -1
869 3 1.6821549656564936 25.90231304087161 22.755637295970235 0 0 -1
727 1 6.699108803272135 24.841559934845975 2.959678737503164 0 0 0
801 2 4.729398415917216 20.35733885966058 7.779155041054253 0 0 0
853 3 6.800530946525873 14.633369759266598 4.3804290181658105 0 0 0
855 3 26.015550829223336 24.691470838235276 4.056922571595378 -1 0 0
901 3 7.953050036910073 13.739191717300796 4.994133956463858 0 0 0
802 2 6.36385192952598 22.675157569084405 6.252734476823672 0 0 0
889 3 13.77526431932822 18.799603985026167 3.8249783649187643 0 0 0
910 3 6.932502698706626 17.75654880750546 25.106140828524374 0 0 -1
906 3 3.1665871367461147 25.70352323060149 3.4397523153514125 0 0 0
748 1 5.775995955738161 21.284792961972208 4.27453314252049 0 0 0
923 3 8.26980644343628 24.796377883814124 3.2695410610338045 0 0 0
909 3 7.924562714300324 21.27316062880363 23.468356702932745 0 0 -1
745 1 5.139938431342239 22.704898544678727 4.411779905204036 0 0 0
766 1 6.220191389478777 22.513747315833903 2.817377212822771 0 0 0
2465 4 8.040285952333717 22.45602256666676 4.235810464701129 0 0 1
770 1 9.693000311843472 20.475427698028135 24.32055638470416 0 0 -1
955 3 9.171205551565755 12.344233268700545 4.876650605420813 0 0 0
818 2 14.04145868871588 20.271869340648017 3.4414546400415253 0 0 0
820 2 10.284631548301872 17.312489274886932 5.383203328186466 0 0 0
964 3 16.799094789678048 20.842737207025657 4.886544123260267 0 0 0
1084 1 10.60931785038448 23.377929707117694 1.3736742098131498 0 0 0
819 2 15.473534073424894 21.666932507240546 3.0731734031403914 0 0 0
824 2 15.443691061009229 19.816191469057507 5.22942022233229 0 0 0
763 1 12.850935264198275 24.029843742331636 3.08500913929377 0 0 0
960 3 6.756852082162335 12.401871748085874 3.431935694894324 0 0 0
961 3 17.16039453131004 18.206105244362924 2.2438145314108486 0 0 0
963 3 14.592737011271556 18.496743184385004 4.120900454665487 0 0 0
2470 4 6.722741975907579 26.357770721928468 3.210544117638822 0 0 1
1141 2 11.372119994829914 19.440556819088442 24.896540631999336 0 0 -1
1143 2 13.65837009361526 21.41292824214436 2.000305364132944 0 0 0
2802 4 10.2775060581118 23.97770660475799 3.189236020838153 0 0 1
1207 3 19.492683801477483 22.77139744277202 20.577567463394605 0 0 -1
1211 3 14.109416207985902 17.01180357887798 4.795684085150155 0 0 0
1216 3 11.838271497359962 16.530402312710983 1.9082373927555751 0 0 0
1144 2 13.673967412137102 19.7013308596105 6.119332714464306 0 0 0
1195 3 17.2321078744556 22.8298813575688 5.630555626435953 0 0 0
1197 3 13.414141863391851 18.819859214056507 1.9916265551711365 0 0 0
1261 3 18.952787856617498 21.536168257231715 1.4453553391946565 0 0 0
1212 3 15.988919944160576 22.18121550391878 4.712377022969221 0 0 0
1087 1 15.030256446550109 18.800363774819125 4.112721257642197 0 0 0
1218 3 6.328515473699166 22.018110894408473 23.312549194416466 0 0 -1
2829 4 20.288533968807187 20.975694619016252 2.756020947132375 0 0 1
1161 2 20.464113902144724 19.811248740606466 5.388482972815282 0 0 0
1215 3 13.917808360676792 25.744272654672876 2.6006765817188033 0 0 0
1108 1 13.746294942520846 21.039509893869806 2.8139250892083845 0 0 0
1262 3 15.46546536388016 22.718891954740357 4.515194073662285 0 0 0
1263 3 16.083220434762985 23.73520087606132 5.274680009812816 0 0 0
1265 3 21.614530762830825 20.899007512879678 4.115345482171795 0 0 0
1162 2 23.49071483048558 21.421242129035747 6.262191588042798 0 0 0
1120 1 20.767490369580415 18.03065201050255 2.8450343646203966 0 0 0
1270 3 20.526812271167017 16.033377406052132 5.813824609616548 0 0 0
1315 3 14.606799728740318 20.117091277963937 23.64012012839945 0 0 -1
1266 3 18.613466156788313 19.570930385293728 2.5983632855307124 0 0 0
1272 3 14.520073413978173 19.713340950049783 6.65530596663949 0 0 0
1283 3 22.07377197582842 21.805562959844465 7.699364472120098 0 0 0
1168 2 23.565638086120778 18.607659927921084 1.889657346924517 0 0 0
1177 2 21.788177768125223 22.446805719125848 4.898847507910516 0 0 0
1105 1 21.526206733506022 3.266360879160855 4.384617083257187 0 1 0
1267 3 23.424235778881908 2.6471842236012737 24.73377995390492 0 1 -1
2794 4 3.719492958485218 19.25460145625304 8.137169566885934 1 0 1
1298 3 1.4562361887978523 22.992881299819068 2.0219628379008223 1 0 0
1178 2 24.417279829152676 19.60196745182236 1.829312001411839 0 0 0
1318 3 21.833699097505125 19.935206754917374 3.564922539531686 0 0 0
1324 3 20.77741018123678 17.69015756755055 22.322270127444874 0 0 -1
1106 1 26.261558230119007 18.30545552720593 2.8175452492860553 0 0 0
1179 2 24.941250192730372 22.736350947308438 3.442224265792163 0 0 0
1186 2 20.175316097945554 21.24301438382539 4.245041905507498 0 0 0
1123 1 23.839092381426006 18.55947853827665 21.91156133043795 0 0 -1
1320 3 2.3827473929722167 24.01587872144637 4.124080685574407 1 0 0
1321 3 24.979542182098776 24.471639280711948 4.693006424909289 0 0 0
1326 3 21.266713904046647 20.93101114357168 22.86844964914716 0 0 -1
2830 4 25.21488979331359 23.45122338450941 4.779178931220086 0 0 1
867 3 25.567829327623933 23.580730943560148 2.2154824323728133 -1 0 0
788 2 24.30812202881411 23.89624225900159 2.574627688087943 -1 0 0
730 1 5.853066234929294 23.46282723739172 1.467394313005526 0 0 0