LAMMPS data file via write_data, version 2 Aug 2023, timestep = 5200, units = metal

360 atoms
4 atom types

-0.8090602860343559 14.81906028603441 xlo xhi
-0.8090602860343559 14.81906028603441 ylo yhi
-0.7669036829790699 14.046903682979032 zlo zhi

Masses

1 24.305
2 28.0855
3 15.9994
4 4.002602

Atoms # atomic

1 1 2.444047408520571 0.9577847227629388 1.634285261548821 0 0 0
112 3 14.275099246175031 -0.5570594284481261 -0.23245878537246023 -1 0 0
113 3 0.9841186080275179 -0.5204861753836599 2.240459013411823 0 0 0
117 3 2.302646805504821 3.3290086121970264 1.8077321250409426 0 0 0
130 3 2.0527770080578063 1.4244290065708984 -0.07499654329948491 0 0 0
118 3 4.000067958564078 0.8430130879552447 2.6559473495341575 0 0 0
75 2 5.122627425967971 2.443078417127812 2.6107471538288674 0 0 0
167 3 4.869901417397055 2.5577658570548807 0.9459892301923412 0 0 0
166 3 6.465357296161135 1.2894277026026417 2.8068990986809186 0 0 0
76 2 6.9391678336079865 -0.07589394999968047 1.9665302736303927 0 0 0
34 1 5.661413429316017 14.202947329330547 0.0372652206517573 0 0 0
122 3 5.911058515895529 0.4234472683962325 0.6315765458655946 0 0 1
73 2 5.139246017251504 1.6340490826202565 -0.4252650371350927 0 0 0
19 1 8.962635893773168 2.430414791696798 0.47935679361389427 0 0 0
172 3 8.633770835129424 -0.26936193157036714 1.5540257077435173 0 0 0
217 3 10.665753666910609 1.9565349308932816 1.582058014687505 0 0 0
163 3 6.728008972744307 2.780706070106479 -0.3307262100964175 0 0 0
339 4 8.886930429017593 -0.049091492032122375 -0.5860523873505259 0 0 1
109 3 13.408153358144135 1.4564446671870646 0.8434149112900147 -1 0 0
94 2 12.399977840425995 1.608474107899581 2.2843377396190867 0 0 0
16 1 -0.7301568001006595 -0.3401743534649518 1.5990090273541733 0 1 0
259 3 12.59393335574717 14.726647061667842 1.7816571652212936 0 0 0
55 2 13.961953248915604 3.0505346940931415 0.12331327758695565 -1 0 0
337 4 11.52648556903545 0.3483698799618433 -0.49465032875369186 0 0 1
64 2 1.4566134028042237 4.7845383720493375 2.467558259818481 0 0 0
131 3 -0.1065394341364524 4.727438354932855 2.2936195431366984 0 0 0
136 3 2.268538269375742 6.20135568202841 1.9019826519100547 0 0 0
7 1 2.182571854202651 6.835440880726374 -0.5047916768889265 0 0 0
22 1 3.8747856735586845 4.114545924104476 0.5175729900853319 0 0 0
184 3 5.132406895528827 7.541623079178919 2.293267626174591 0 0 0
81 2 3.5732386236853966 7.0253985656680396 2.8210861335699216 0 0 0
195 3 7.1481188217955385 5.216603045207497 13.158059656670831 0 0 0
25 1 6.555741386300464 7.086352226414547 0.5457656761894139 0 0 0
37 1 10.815157441805534 4.00931896844022 2.486932797522434 0 0 0
82 2 7.565906238267413 4.705615142777275 2.7930982689335897 0 0 0
171 3 7.200408743457407 4.85712284760105 1.3014931501969746 0 0 0
100 2 10.651865368787504 6.29789343614386 1.1335622698953465 0 0 0
186 3 7.360084164374838 6.3760651324036575 3.506628501845978 0 0 0
120 3 13.20792952603095 5.241015903797605 0.6669176839856634 -1 0 0
4 1 13.399227361564185 5.198374985213993 2.4580915801727095 -1 0 0
244 3 11.187315388414431 6.943369122615251 -0.3601364013549874 0 0 0
223 3 10.169848138621548 4.679046891074342 0.8739364327837538 0 0 0
63 2 14.260735611319054 6.062804004571136 -0.12233310105305628 -1 0 0
243 3 14.607857656524368 7.179511358340821 0.7743645822474581 0 0 0
181 3 0.7113209506023743 9.76802070812697 1.1129357575936363 0 0 0
132 3 1.0660787117965216 8.180742869874258 3.3410303897993208 0 0 0
135 3 3.011206950722154 8.323776618047164 1.1081011382465165 0 0 0
70 2 1.704854150609302 9.047917668873215 2.078246081815118 0 0 0
241 3 -0.5391444216320861 7.008519004731823 13.411146462828064 1 0 -1
28 1 5.2225579840916065 9.563073055430367 0.6436574750299651 0 0 0
199 3 4.6147754837190815 11.336874922015863 0.545979263030929 0 0 0
203 3 6.408931966872534 10.302814246352678 1.893801591191386 0 0 0
246 3 6.126145489475247 8.354031647386849 -0.4965578688379831 0 0 0
189 3 9.390949994363613 7.261715890025467 2.088517840728525 0 0 0
202 3 7.303293429635261 10.401444316129831 13.625370985957655 0 0 -1
88 2 8.055520604466693 10.12169254823175 2.0570090547571462 0 0 0
253 3 9.781383729347988 10.167483978612907 0.8605987187230013 0 0 0
256 3 12.414831488313652 10.395787836614584 0.2061736780151998 0 0 0
50 1 14.78535306833192 9.118430260739695 0.9455638532314943 0 0 0
10 1 11.447904025136749 10.239194996830507 1.9455409414177578 -1 0 0
13 1 0.4049811703677981 13.103214128475983 0.9687577445037618 0 0 0
290 4 1.054150359284811 13.460216328180957 12.964356167163029 0 0 0
87 2 2.9732690036746092 11.7356060619329 3.1256011785625177 0 0 0
156 3 2.4738167124729014 12.341549817850424 1.6529147980617687 0 0 0
31 1 6.066732196536712 12.332202623991074 2.072457666421965 0 0 0
207 3 5.957512278483477 14.121628777362458 2.408349952434327 0 0 0
211 3 3.555373534240254 13.4086539538613 -0.6483269772220999 0 0 1
85 2 3.3933998445612836 12.026314126895556 0.09706146856338849 0 0 0
74 2 8.972431944095351 13.689147991979432 0.5016635060637877 0 -1 0
204 3 10.05941411241312 13.1574246525798 1.698417767191951 0 0 0
208 3 7.143072649678614 12.99243625736399 0.43059225532230827 0 0 0
105 2 10.04427405407579 12.412599647910735 3.1796777959913194 0 0 0
103 2 9.376349802234573 11.467442102146862 13.999356476041182 0 0 -1
52 1 12.038317452156178 12.72381298415591 0.9182876090733445 0 0 0
155 3 -0.14590707812230552 11.669096404446167 2.5790969775301322 0 0 0
205 3 13.10763615590567 11.60413687930464 1.4798195029244594 0 0 0
3 1 2.3074796667732835 2.5620474769568946 3.9716685815750443 0 0 0
226 3 -0.15061533233851998 2.5580536583957945 4.717334339194402 1 0 0
38 1 -0.34186098607001114 0.6065181966283326 4.394302738487041 1 0 0
126 3 2.573870706357651 1.3106298016512885 5.250433630418997 0 0 0
60 2 2.3829803940635603 -0.22943190321462092 5.557652822391958 0 0 0
254 3 14.585271692922046 -0.62110445620067 6.136155564035849 0 1 0
168 3 4.0311225286540715 3.5301523079995185 3.1787363479425053 0 0 0
111 3 5.448314077287744 1.771059059656567 6.018613459642219 0 0 0
173 3 3.7840942551471555 -0.3713719008495193 5.068923663829695 0 0 0
93 2 9.953955892817936 0.8586118144863466 2.938004076429318 0 0 0
222 3 11.150647331624754 0.2928555015779528 3.7655300917238925 0 0 0
164 3 8.558763694226311 1.2757756878211102 3.0117216941145384 0 0 0
21 1 7.065667301986283 1.8206709948281463 4.950438248946523 0 0 0
180 3 9.775448404296442 2.1887974523573908 5.61446350497612 0 0 0
170 3 7.901259440925532 0.8851832313648444 6.293197953551893 0 0 0
225 3 12.92660462619712 2.847102104075311 3.301502722124588 0 0 0
145 3 14.533396560222098 14.402507181687328 3.147986406171247 -1 0 0
219 3 13.886800802833694 3.630077131756738 6.358355528431991 0 0 0
39 1 12.32165127716655 2.3875475538759785 5.351324009610377 0 0 0
44 1 -0.07474575994752242 6.884273035639205 2.78082303702886 1 0 0
124 3 2.9465739690016792 6.126747064218452 7.005363332378482 0 0 0
110 3 1.6733801274253262 4.23439907014876 4.285927615431243 0 0 0
66 2 1.4568307997410277 5.702542501914263 6.141251611695624 0 0 0
137 3 1.5408248266919458 6.8840240621466915 5.086092755224183 0 0 0
65 2 -0.12438126120945836 7.287507436666015 5.308760260659743 0 0 0
8 1 4.396050634827426 4.038716387495783 5.102207690905025 0 0 0
191 3 3.3396368967258283 3.78762826694589 6.923524166008206 0 0 0
301 4 3.046392872719152 2.807642776775934 6.985267757666884 0 0 0
194 3 4.8949074266003105 5.970048388662493 5.311326764140732 0 0 0
185 3 6.62601458695736 3.4987930710491355 3.3407798401628392 0 0 0
190 3 9.283536465804602 4.324395353380541 3.979988408996938 0 0 0
84 2 9.8440234664409 3.6822685867230813 5.31647047612331 0 0 0
188 3 8.308482080625241 4.171803238382833 5.946392672717299 0 0 0
27 1 7.308759297965382 5.828992107424927 5.30032321789729 0 0 0
101 2 9.65021656677811 7.301656821798366 6.828564154036709 0 0 0
183 3 8.99750783460213 7.527653569727358 5.443574503950179 0 0 0
114 3 13.85262763522701 4.542416565503567 4.417929895628687 -1 0 0
57 2 -0.3325907936187174 4.252078586952342 5.237745474580328 0 0 0
239 3 11.87229750712181 6.80671408947633 2.0978729191050896 0 0 0
229 3 11.281640407392146 4.188179614666943 5.136864532892932 0 0 0
26 1 12.908917815832789 5.421968677147837 5.710338532061923 0 0 0
245 3 10.828093915050246 6.363299682893454 6.888594596418582 0 0 0
9 1 1.6547279596079822 10.142112986732998 4.332572525544356 0 0 0
144 3 0.35033905377738894 10.836069975924845 6.815159222140842 0 0 0
154 3 3.016607898368711 10.097901291231734 2.73170022619332 0 0 0
134 3 3.4554242594031352 9.838409274193744 5.305013747898932 0 0 0
129 3 3.2910022105711096 7.987660619804352 4.209139835747485 0 0 0
14 1 5.01747051198511 9.04566132350474 4.201622782342221 0 0 0
209 3 6.393630766497138 10.632413538243398 3.906513885800881 0 0 0
99 2 8.825925893934949 7.666001697788095 3.7629230731437238 0 0 0
240 3 10.486767220134547 8.206297687018942 3.7947016430834744 0 0 0
198 3 6.593876700809862 8.551984637570346 5.849340369807951 0 0 0
182 3 8.306638194972004 9.012331352352797 3.156110388664607 0 0 0
206 3 8.516013994519659 11.040218848802276 5.29814835657412 0 0 0
32 1 10.306689716115962 10.126636585560759 4.696523078312519 0 0 0
106 2 13.259013175617664 10.482121170866002 4.476959114134753 0 0 0
242 3 14.160929462747923 7.07081931998896 4.321626780331699 0 0 0
45 1 12.22884123450978 7.7538749028187475 3.731883321960945 0 0 0
236 3 13.432413250507901 9.071981325630931 2.875459394579658 0 0 0
250 3 13.529276280647773 10.25636515441322 6.0236462327467075 0 0 0
252 3 9.863391071367264 8.96955452747367 6.893662194308647 0 0 0
58 2 1.0222639802468936 13.906658374070126 3.954434061763604 0 -1 0
149 3 -0.2381581916171932 13.146322873160203 4.432537603005847 0 0 0
153 3 2.509298333212309 13.156677815522858 3.9288821881506557 0 0 0
146 3 1.0490836300153163 -0.6555424941377679 5.151183920024997 0 1 0
15 1 -0.5959842312362181 12.390406821981422 6.234418690940203 0 0 0
2 1 4.290095091686724 14.264995476520154 3.241297189960928 0 -1 0
128 3 4.645297431703828 11.778364563908834 5.826534070444707 0 0 0
89 2 6.068496423249485 12.265657392200662 5.854930733772999 0 0 0
147 3 4.538683834572917 11.991879531233522 3.5300170454749358 0 0 0
216 3 6.6252705928598 13.730898346666812 5.236915365316165 0 0 0
78 2 7.5353998518796015 14.243110522853229 6.45887607456099 0 -1 0
258 3 9.44057306995956 13.555106388313634 3.999082820172129 0 0 0
33 1 7.50650509278948 13.283110112573702 3.5774222151610022 0 0 0
20 1 10.044881531886704 -0.03936028859089513 6.016762266351056 0 0 0
200 3 9.280065711225529 13.395572471018422 7.123341205729401 0 0 0
201 3 8.177022931585073 11.871736090956675 2.52575128674476 0 0 0
262 3 11.173262482210616 11.355982139028477 3.5446028700437813 0 0 0
69 2 14.324594529345497 12.58747322290824 2.7758074780963966 -1 0 0
49 1 12.405716350329802 14.366317858991874 3.8660588359800148 0 0 0
261 3 12.003816857436995 14.51633579211256 5.711454547884654 0 0 0
255 3 13.303184220734154 12.410517416916617 4.043230247840992 0 0 0
121 3 -0.18433840053507378 1.5284277366863397 8.382074674971474 0 0 0
5 1 1.5432040702938465 0.302156408920218 8.191979328577288 0 0 0
341 4 14.137071526362329 1.0672330287133531 8.850790129652927 -1 0 0
268 3 0.5631908046601211 -0.30421382555402554 9.74304381421595 1 1 0
175 3 2.269746288317821 1.9113711390793524 10.306959095593468 0 0 0
116 3 3.4791707645270433 0.041345294840272384 7.3692951149626715 0 0 0
77 2 4.634325656456326 0.2869950872142224 6.268302598581698 0 0 0
272 4 3.981771237547732 13.614575977401664 9.362463061878703 0 0 0
274 4 5.140403400077228 -0.06902737104620327 11.781486806775451 0 1 0
286 4 5.732341828433938 -0.009043488323983717 11.49438018128035 1 0 0
316 4 6.306780531160406 13.297209891127766 7.410592611624693 1 -1 0
302 4 7.095309148360273 0.06084273432842158 8.141785078614928 0 1 0
344 4 6.144345682070008 -0.13188981498709018 7.428056906435142 0 1 0
291 4 6.069248183922011 0.8048910737030284 10.484093897793302 -1 1 0
338 4 3.034864353406335 14.236990841422154 9.461113672118627 1 -1 0
352 4 5.781266802301836 2.043808938625042 11.671725378052196 0 1 0
95 2 8.749343977662027 1.0295680462981627 7.530558607133267 0 0 0
224 3 10.162155989703086 1.0280617664576603 8.217447754334692 0 0 0
357 4 7.594086918028546 2.0997556460187754 9.229074966041795 -1 -1 0
234 3 8.100697191526981 2.6225871823405207 8.635086741369857 0 0 0
333 4 4.713393423053958 0.17143590529048847 8.723458924630421 0 0 0
275 4 5.142701205814711 0.7214423961258549 9.839875519325451 0 1 0
41 1 10.7040567322374 0.12831415594109907 10.008818293986234 0 0 0
306 4 6.6860567474259405 0.023175707928424272 9.843881882660572 0 0 0
165 3 12.850859198234394 1.4548335187879982 7.239214304842669 0 0 0
96 2 12.926988730117328 -0.23189455179796414 6.873364111607599 0 0 0
102 2 14.26955481744251 2.876915553184731 7.796861913462427 0 0 0
277 4 12.37095729692128 2.040722201613353 9.393960079445685 0 0 0
282 4 13.55282457013226 0.4822492300596293 8.967443598384142 -1 0 0
248 3 12.718920651626187 1.154918814085994 9.89109935222252 0 0 0
297 4 11.656251289073786 14.3502702431811 7.693426793405301 -1 0 0
232 3 1.2508171076375905 4.921191563124124 7.457641860482832 1 0 0
334 4 -0.12787782225402056 5.322666120098702 8.959728926155792 1 0 0
123 3 0.18046019661510782 4.92859959639182 9.831611227056637 0 0 0
6 1 1.8981725382959538 3.392025591480558 9.244772109277122 0 0 0
350 4 -0.24617633569035724 4.594541235770655 10.683424441503028 1 0 0
281 4 2.6407118839033124 6.428797771769502 9.164983622957905 0 0 0
140 3 3.2486110171899547 5.443857323709383 10.009440723900273 0 0 0
83 2 4.3907731881196135 6.432929616823617 6.649020362076236 0 0 0
356 4 5.374695037193178 6.227835384164577 8.377820747077422 0 0 0
230 3 6.295112231981176 5.502499540469249 8.19517520547752 0 0 0
298 4 5.069753444295827 7.232389997742947 9.44096643964747 1 0 0
42 1 6.021496229249077 4.158657279081449 10.133704116584306 0 0 0
196 3 8.940945585219739 7.0261571518977135 8.255277620461763 0 0 0
29 1 8.195730880176935 4.939459435235328 7.922875797652088 0 0 0
197 3 7.7845120222612 4.953398993314374 10.641293417036628 0 0 0
187 3 10.755244705934903 6.895660660325663 10.320615089924088 0 0 -1
354 4 11.305673885339678 4.150036837732003 10.702502425846241 -1 0 0
139 3 -0.08258232868436133 5.66516881109831 5.918320295405391 0 0 0
319 4 13.508427528298185 4.706692756875637 9.35268888324661 0 0 0
218 3 14.128430863538208 4.025923977371898 9.222296481168076 0 0 0
247 3 10.932388455719012 3.8464737195004615 11.556612078219795 0 0 0
349 4 10.941439442610582 2.6474888349128185 10.742956403409723 0 0 0
141 3 13.175046999101253 6.472545220392343 9.436006348807426 -1 0 0
293 4 1.2019726389310081 4.873118108639563 10.59087438902816 0 0 0
193 3 2.3941038965120858 7.58456880744289 9.30349202899068 0 0 0
142 3 2.518817297496393 9.989184053386175 7.992287743014195 0 0 0
11 1 1.6121269387793755 9.235851211052637 9.773246650624202 0 0 0
332 4 1.2549330385006057 7.176736989394392 9.588291434835178 0 0 0
72 2 3.8022866559626003 9.740109051175487 6.784628690899973 0 0 0
305 4 4.6760479819047305 9.083831343955834 8.584051028380157 0 0 0
310 4 4.6293195128364095 7.810284449438548 7.174066761361775 1 0 0
296 4 5.200844696244091 7.586643109926955 10.092045120999604 0 0 0
318 4 6.201683817873989 10.08156704195948 6.600836368227818 0 0 0
212 3 5.274078513653181 9.035396517947905 9.34543847303393 0 0 0
90 2 6.995273686121582 10.105805343998293 5.374950386795557 0 0 0
265 3 9.516310385010495 8.775329618709952 9.503394798609536 0 0 0
313 4 10.552315091343079 7.973702878706614 9.541540335478716 0 0 0
329 4 7.257231499994207 8.169655292615705 10.434490074695406 0 0 0
43 1 13.458915421256297 8.93537029748632 10.000880960995403 0 0 -1
47 1 11.57215057288064 6.575853119152687 8.641761279769083 0 0 0
237 3 -0.3671119126954911 8.393889716699453 6.565073833325617 1 0 0
71 2 -0.6946547259232249 9.791955522478142 7.271082778843439 0 0 0
108 2 10.766934026663876 9.323657614041801 8.30725168382139 0 0 0
266 3 12.27691746121223 9.040901895516443 8.359207775859183 0 0 0
260 3 -0.4280893836914964 9.69780544852957 8.945275777239704 1 0 0
119 3 0.08977633901652926 13.375982380475717 8.255911689302987 0 -1 0
160 3 2.2676426348039245 13.733460885956054 6.5567981878049215 0 0 0
284 4 -0.3558221050903681 14.065587518551684 7.804683497982994 1 0 0
280 4 5.416085308610258 -0.2939440534553144 9.518207877527837 0 0 0
283 4 1.5836268204725226 12.92228271067918 6.704579377430473 1 -1 0
317 4 4.200530924193548 14.346069898614937 11.653458545744986 1 -1 0
157 3 3.0695994952969223 13.240121776793428 9.508287994659627 0 0 0
17 1 2.639569441036919 11.891885223428897 8.225908142613834 0 0 0
152 3 4.4577262614327555 12.028000468095112 8.730895275009681 0 0 0
345 4 6.417797210963995 13.698064902416203 8.389264210778741 0 0 0
287 4 4.95327305637008 11.944717180309251 7.731668444097366 0 -1 0
347 4 3.9265881857786207 -0.11828095187557386 8.905123292356649 0 1 0
257 3 10.74798438844419 11.243446263006302 6.132639612991324 0 0 0
107 2 9.229610100537649 11.608813913546907 6.893337438179144 0 0 0
270 3 8.286683127048905 10.89504890820174 7.8842444018976785 0 0 0
263 3 10.578840721786595 11.049951982434514 8.403459320160312 0 0 0
53 1 9.968311779399718 12.736752531638011 9.856966725122385 0 0 0
162 3 13.809786706300578 11.6580701841978 8.154740873188176 -1 0 0
351 4 13.342472913725702 12.537322537592834 8.711230289472699 -1 0 0
227 3 11.678266553986766 13.959342186245001 8.45560085512025 0 -1 0
51 1 12.006568424205586 11.986092532489236 7.2324029485818135 0 0 0
289 4 14.094746641416062 11.573854856010481 11.757324739402643 0 0 0
343 4 14.294513073855343 11.076579151250318 10.608603136079015 0 0 0
295 4 13.66707956644933 12.493013181794154 11.265444582771206 0 0 0
299 4 12.869308484653697 11.77943849351872 11.510388988720841 0 0 0
151 3 0.8733236871494499 0.8460242772275435 12.253727431353909 0 1 -1
18 1 0.20016751678562628 1.4571435283237437 10.524346108468494 0 1 0
36 1 1.955214949170609 -0.6264907547003131 11.493841196835023 0 1 0
115 3 0.6130643105404798 3.3786906285673775 11.89843785294235 0 0 -1
62 2 0.17147861836170908 1.2797145579956752 -0.10543582511301319 0 0 0
56 2 13.192693581702468 13.938259165660805 13.778671683334073 -1 -1 -1
177 3 3.488539891880567 0.783570963649507 12.56312570229906 0 0 0
308 4 5.4531021443914165 14.530241504991334 11.94304359222609 0 0 0
320 4 3.5787944672628598 14.523259290438686 10.484212844593328 0 -1 0
24 1 2.42408791385039 2.6575676695118453 12.02194262311511 0 0 0
125 3 4.180036287574002 3.8026333782206967 13.388072335511856 0 0 0
312 4 3.7576623032848273 -0.2676193881679997 12.94647665091003 -1 1 0
359 4 5.297823584351644 14.304888876617008 9.918681267646562 0 -2 0
279 4 6.572447470280173 0.8582252245807125 7.615661674455746 0 0 0
294 4 4.672193675875591 11.483158365375322 13.320368540076053 0 0 0
214 3 9.298272655677552 1.479962669122186 11.04557808498139 0 1 0
23 1 8.597497072259033 3.309100885111988 10.684807147097917 0 0 0
215 3 9.22235330825862 0.5690225481815809 13.896005211611346 0 1 0
54 1 9.228886582889976 -0.7701946969428886 12.057498941025175 0 1 0
269 3 11.503960629382293 14.264623469448157 11.542488590661728 0 0 0
174 3 9.061250698076172 12.850474581297728 13.642416996343 0 -1 -1
220 3 11.392178070302002 13.830531241256796 -0.7198710279671041 0 -1 0
231 3 11.787479455428388 1.0156614757738782 12.07216323841699 0 0 0
159 3 14.208080127622345 1.104771075620003 12.051694148509121 -1 1 0
98 2 12.617990217322138 2.190597378068941 12.792011632186236 0 0 -1
92 2 12.690668532251328 -0.6255517058193616 12.115920251049268 0 0 -1
326 4 13.918795760851298 13.711528812430096 11.569937705917022 -1 0 0
127 3 -0.15243485138799495 4.772897655006329 -0.5334211029913867 0 0 0
311 4 4.697996646138472 5.092534817295934 11.646465179090937 0 0 0
61 2 -0.5020104425401406 4.71586829001012 12.3936214360727 0 0 -1
233 3 5.0381661055624205 5.665577344707111 0.04382630509261187 1 0 1
138 3 0.8009157182918423 5.619672259407661 11.877949933012454 0 0 -1
309 4 2.8787314760920717 4.883972919892859 13.501331286599891 0 0 0
342 4 13.198576079962574 0.9179146797796087 10.664910403415488 -1 0 0
324 4 6.48427322437671 8.091131240313874 12.256945149920266 0 -1 0
91 2 7.368746445515949 3.4152601010634394 13.184212002393318 0 0 -1
314 4 3.5756392242535338 8.025302066741506 10.87366920780541 0 0 0
330 4 6.140098978091642 6.379559313049749 11.310208600329032 -1 0 0
179 3 6.737841225055378 2.8530776626485546 11.661649834493005 0 0 0
304 4 4.8202848001046945 7.542411427298061 12.575390431365708 0 0 0
79 2 4.94406417342162 5.075184543521109 13.135709727240425 0 0 -1
273 4 6.501968618156372 9.030392488637515 7.564642330386089 0 0 0
40 1 10.727580913049202 4.979327336986046 14.016651735819881 0 0 -1
235 3 9.289493957236907 4.7968293363509 9.407181163769728 0 0 -1
292 4 10.268208711445881 4.689818506975389 8.950239297779305 0 1 0
169 3 9.15117431662909 3.161283148574803 12.633822218150149 0 0 -1
97 2 8.918601944824566 6.66518899180918 9.878689588429086 0 0 -1
221 3 12.390126596320137 3.3122358566600436 13.887396423752094 0 0 -1
331 4 13.257892374314396 2.7721185511151325 11.509714586025716 0 0 0
327 4 13.510227465121517 5.943360688179138 10.222867275272014 -1 0 0
358 4 10.183425232508238 3.226161368782569 12.109777924869784 0 0 0
321 4 -0.5304039584219855 2.743361660031542 12.940148980597627 0 0 0
278 4 12.736364165027188 4.471923471123186 12.467773912084791 0 0 0
133 3 1.4264971284993222 8.32119960308047 14.007476363227365 0 0 -1
192 3 3.283261334701394 7.851590661920502 13.191825069712838 0 0 -1
104 2 0.5115001730543813 8.108811560579237 12.677331811901722 1 0 -1
249 3 -0.09958761825752649 9.929501109999201 11.480898184566247 1 0 0
323 4 5.190562150608347 7.745056973993076 11.47785477495044 1 0 0
80 2 3.4160430172365324 6.14239076500882 11.198893807864374 0 0 -1
143 3 2.844285333409722 9.858621516389512 11.97205594311598 0 0 0
68 2 2.812673550871039 9.439822115425903 13.494913539511819 0 0 -1
30 1 5.963178661595565 10.842434785431385 9.34991685895225 0 0 0
213 3 4.674604308001764 10.159787955552186 13.402668097212128 0 0 0
267 3 11.08182566070349 10.198242223523902 11.90258649249586 0 0 0
336 4 12.73527628958707 11.458202925231616 -0.367435615202572 -1 0 1
178 3 8.102727682978433 7.88605728713973 10.629593198628841 0 0 0
86 2 6.366345868431884 9.435766655951255 12.83393401452933 0 0 -1
161 3 6.366642127056813 10.806596314330754 11.239432885459323 0 0 0
315 4 7.568362705716005 5.8506607763345 13.755458674461046 -1 0 0
48 1 8.76510051581774 10.025655978629647 10.658880814740124 0 0 0
340 4 8.690110984630937 7.272320511023823 12.391928763890014 0 -1 0
276 4 10.707277609153733 10.285163961270353 12.918294694163517 -1 0 0
238 3 13.581121102434388 5.179239947255088 12.783913459489336 0 0 -1
46 1 12.622683961777815 8.369270862130426 -0.33255777170140927 0 0 0
251 3 13.031988148344523 8.43379703243203 11.610596830474824 0 0 0
288 4 12.369772301635038 9.124001134506447 11.732200598068998 -1 -1 0
228 3 1.9048205254071964 13.318843680703754 11.773822588057113 1 -1 -1
59 2 0.5889212396108876 12.766565999132334 9.960449233669356 0 -1 0
158 3 1.591634281947063 11.118180869123568 9.904889807315495 0 0 0
210 3 2.1860893848669773 10.600998824391947 -0.5909301985733527 0 0 0
150 3 1.0214916184662548 13.374011627283735 13.992453934399984 0 0 -1
67 2 0.40815885895474846 11.352640183971808 11.918899902863698 0 0 -1
325 4 5.4002970115201805 13.745446336498688 10.439432380198882 1 0 0
285 4 6.247588539463179 14.530717832963349 12.407963616527207 0 -1 0
348 4 7.891317481380817 14.14596901230053 9.122729645172004 0 -1 0
12 1 3.552386901178738 11.54679131722023 11.33345651819247 0 0 0
360 4 4.429684134348551 12.97813830180778 13.10567054055538 0 -1 0
176 3 8.486219735074117 14.271901103121271 10.390834385263584 0 -1 0
303 4 7.7801246977346565 11.997805068222718 13.561021242304614 0 0 0
335 4 6.877772183433073 -0.7076789370667677 9.715848438570914 0 0 0
264 3 9.092176267146236 11.787017829180328 11.349219131285858 0 0 -1
355 4 7.1487321316080035 -0.5313826660813861 -0.5163840858629938 0 1 1
271 4 10.59291865828054 11.096234185245143 12.016918231216177 0 0 0
35 1 7.373443271564426 12.176556268820072 11.868615983616069 0 0 0
353 4 14.800400560496318 10.484031251840017 13.418112026590364 0 0 0
346 4 1.0353058609306431 1.3975995179021843 13.044030933015561 1 1 0
328 4 12.272705375914944 12.200422176411154 14.045960367291567 0 0 0
148 3 -0.03958936132989421 10.857926407482756 13.623177409682052 0 0 -1
322 4 -0.5960462201870258 10.124805738706776 9.664614372419361 1 -1 0
307 4 -0.5461134653654872 13.964073377775803 11.930981555318514 1 0 0
300 4 13.239816360835304 12.699885872277655 9.674386626888388 0 -1 0

Velocities

1 -0.12856703818051415 -5.376849187210335 -12.11845275004056
112 -4.614402165784863 4.543428027879969 15.230642521234634
113 25.845201176981924 -10.5638584470073 -14.979364402497367
117 8.430578218830952 -0.12072073835130688 -10.961504681021227
130 31.601337746855513 -13.842966910552525 -8.421781557111572
118 21.786393908972215 13.187507585106719 -14.021017651693013
75 17.410105074188248 4.22608558180149 -1.1163942361372456
167 -18.33762965988862 10.214106266079698 -5.842504694989854
166 -12.476060348289632 -6.933772169175481 -25.35489444343809
76 0.166407739565398 5.02385964985579 14.131351784273418
34 17.34058392416842 -14.092272833792604 -32.71383443357314
122 14.77369614783725 5.92975703656003 28.53523009219908
73 0.7373465291690616 26.44475152023921 11.664692088931355
19 4.691941164976341 -1.210104563914028 -3.7880804889567314
172 5.118636568052225 11.601918088484268 -14.91712527402836
217 0.4444124763092679 18.11435671788638 -13.749735115337774
163 -22.087189031228185 22.26064407816232 -9.790713901202684
339 9.349237985591202 35.13281589621127 -68.72288904071854
109 7.427239021992551 5.204310577672998 -7.310509259701574
94 4.895997759212415 -7.933522550701693 2.839004280891306
16 7.8931744085441125 -21.738324045473902 -11.528728840954251
259 14.386839235880542 -11.566923487650708 27.62017387674702
55 3.859857403503037 4.921206849632768 -14.614778143494478
337 -59.931280216391606 21.66369283014856 60.53848709257122
64 0.4962136360589483 10.123149015368865 7.855162678805273
131 -18.911544888809196 13.460839126350296 0.35542727526447276
136 27.460748247146714 13.227952008285733 -14.707286118903236
7 -3.988392114775625 -0.4199483943971974 12.33864822409449
22 15.985193595224054 7.094808100565439 -1.119556367826599
184 18.760560967381366 7.310253151181937 36.20539097009988
81 2.496376585032954 10.555013496845586 2.7779132794569668
195 -4.033553391378686 -5.321281120404203 -1.9363079266689007
25 -2.7113009070870033 12.08252329063699 13.023616133159313
37 2.421330900806606 6.521371716081149 -7.598723921963318
82 -7.095574926750558 -10.988772397998812 4.554092487019063
171 -7.178157673869802 15.338698768977292 -17.363145678383482
100 -8.660956074409745 0.10074007065908229 3.162261728355246
186 -2.6284004218775148 25.09460113127307 -31.030959788821757
120 -14.509226246829638 7.676688908030372 -0.9963443559755941
4 5.100796524815994 -0.45947912453247713 13.120213816684847
244 26.67369451145932 10.777390264120024 -33.04314756865432
223 -18.25674857646021 7.094999156851111 4.784054410435327
63 -1.7808746903429211 2.8252643248403224 10.624760166125023
243 16.758518822842905 0.24511107988944744 -24.051310747647584
181 12.269058256254555 -29.810556889217448 -4.850111913187563
132 -10.08461260798282 2.910643098584127 31.957919550631395
135 0.09693701451249626 26.928157650071476 -9.15143719983736
70 7.951356636543808 1.198708757328854 -7.316258029015912
241 -15.212067835342166 -26.356156115064092 24.154469573478615
28 0.2505242582311836 18.829329361163243 -3.4867124402350806
199 26.38323576880825 -17.70532637488231 -11.645971222823238
203 -13.057186735822027 2.702065322432053 -4.54309716142406
246 -16.331766138829465 -19.942520548105378 25.180714222284408
189 7.00957992650207 -17.787743949602667 -7.011794463551227
202 13.91405294202543 -13.234330936555436 -19.459079626258887
88 5.247814044167686 -0.08886617214397888 14.034862879086553
253 -14.831941970408543 19.974433782448408 0.34758341495714246
256 22.7424524356063 15.525989415749144 -7.709862040871239
50 -16.811660501588207 2.330281248598611 -2.278685630555847
10 1.1148588778825481 -1.5017004002353245 -38.91716083248154
13 1.3622256772905987 12.847817689766151 -4.204079200121393
290 -17.43547551670843 -35.926356942330635 -38.464262301086414
87 -10.919642365038248 1.5363267127390878 -15.16295876855971
156 -2.744750076373063 6.297678004579553 11.452320923821643
31 7.939065475050627 -4.115436869242915 24.663644605827173
207 -1.1319447859891816 9.555650785920458 10.523408221674336
211 -7.910313458691938 16.283391151210285 -12.838673897297122
85 14.255809537835013 2.5859344858424715 -4.172420863470689
74 8.459570520170395 -30.35669352436029 -6.4886997906662796
204 27.657917110175948 13.116401441911144 30.49867955176968
208 -16.95350830520651 39.65881940351456 -21.205869166371173
105 -8.727853750803078 -3.3637881670859056 -20.287043336077062
103 19.876235071084682 -4.990361632734112 -0.8947168007742009
52 -6.228646361971809 12.959246461415283 1.222227686557421
155 10.681965769918428 -2.013811454482796 2.418613441900081
205 5.6652385682810555 -7.2179345295471276 -15.908664499994252
3 23.321828216399297 -7.057100793990549 0.4074280084702667
226 -36.23172057594176 -3.6879206383064846 25.96201981809609
38 -14.758453961991197 12.859345069637442 -7.109646437005945
126 1.7801034176828439 -0.13049493530222464 -9.110144779698556
60 -1.5284653796781027 27.57011898840891 1.884666892854593
254 -2.399599935015662 9.0797897261112 -3.6030742165774727
168 0.06996332447076362 -18.181881208194884 -11.686067328552587
111 -20.405974781068917 31.296113963548226 -4.8047531572787
173 -22.039287658341262 22.11165889981434 -1.5121022981977246
93 -2.380282504284414 10.924776578301138 -2.515989210504195
222 -12.316557081376184 -5.950639770404268 -10.609401592449645
164 -4.581215914300482 -9.310215897500468 20.658124724230078