LAMMPS data file via write_data, version 2 Aug 2023, timestep = 600, units = metal

2880 atoms
4 atom types

-0.7733063673689884 28.793306367368977 xlo xhi
-0.7733063673689884 28.793306367368977 ylo yhi
-0.7330127450863575 27.293012745086386 zlo zhi

Masses

1 24.305
2 28.0855
3 15.9994
4 4.002602

Atoms # atomic

1 1 2.4522380151732883 1.9504091711230762 0.29668952271098203 0 0 0
57 2 -0.6995388342569627 2.119828475342272 2.4207554030552094 0 0 0
58 2 1.8267056713999308 -0.6788366029928178 2.404753126895194 0 0 0
112 3 2.1262172104007466 0.024815293872270328 0.685091248207436 0 0 0
113 3 0.41571292786462344 0.43372743111322865 2.6582317056387854 0 0 0
114 3 0.5158501271540965 3.2355861302042266 2.357841110967189 0 0 0
118 3 2.9665135368637148 0.632236308210542 3.4356569549628695 0 0 0
117 3 2.84482427241466 2.8416282713191987 1.9042157684242413 0 0 0
75 2 4.107146681979849 1.4968526966044768 2.7785883898902 0 0 0
163 3 4.449814639102917 1.3876957660512272 1.2338923588121335 0 0 0
167 3 5.1790612875638535 -0.057913746596397364 2.870438584979416 0 0 0
168 3 5.415790398987138 2.698986577673444 3.4149512074235213 0 0 0
19 1 6.4685483351890065 1.5769381706110832 0.9999871645283063 0 0 0
76 2 6.773865344212351 28.484864402081197 2.625467583949284 0 -1 0
166 3 6.262800199765213 -0.2015831125534593 0.14636317747124838 0 0 0
172 3 7.7467505219651915 0.42717739897298856 2.396504181838222 0 0 0
93 2 9.418183311038998 1.4635995109671005 2.6289865986037273 0 0 0
217 3 9.73028965239128 0.28515849269220994 0.36569552779108583 0 0 0
221 3 10.49973088224908 -0.33617754340940625 2.9959574936396813 0 0 0
37 1 12.250748934378342 1.867873248763607 1.2512861935718258 0 0 0
220 3 12.022671973677312 0.20669108858796992 0.7612647848903016 0 0 0
222 3 10.831613522324472 2.2848880302626964 2.581504906253426 0 0 0
171 3 8.11951492486935 2.739465114520401 2.535729541299615 0 0 0
772 1 9.79403877354864 28.25237209274178 1.4833283077635024 0 0 0
226 3 12.668852735598582 0.8305604821417845 3.4960634509210093 0 0 0
417 2 13.78116082664601 1.900870977574117 2.9672233285044216 0 0 0
469 3 14.361038097379542 1.0364696186155624 1.5029458442923596 0 0 0
473 3 14.846631505115898 -0.29914362578691633 3.8357168221578997 0 0 0
474 3 15.364488270086454 3.13473725212028 2.7942636386120245 0 0 0
225 3 13.031168715799398 3.1569559253917623 2.216031300720064 0 0 0
361 1 15.926169927417838 1.9776716176904867 0.9929903994502538 0 0 0
472 3 15.711073229498865 28.283119614453547 0.3346562214142319 0 -1 0
478 3 16.495594468423477 0.3996743118006305 2.3992610049985363 0 0 0
435 2 18.891438409364568 1.7587819272242462 2.901348907369166 0 0 0
523 3 18.442935131601853 1.7156787141689787 1.2131018727866272 0 0 0
527 3 19.75480935084909 0.010045059648554289 2.9964066240624163 0 0 0
477 3 18.06257468265493 3.2733947115133804 2.9694407198417214 0 0 0
528 3 20.226660246087345 2.688534513873793 3.1040861849768335 0 0 0
379 1 21.43981503735734 1.1148517993220288 0.5198414307036336 0 0 0
436 2 20.99460109627578 28.434300279999118 2.8479393420433756 0 -1 0
453 2 23.796299853452823 1.6867672834201297 2.474721276887334 0 0 0
526 3 20.820703715897164 -0.35937558804260156 -0.09155694996359054 0 0 0
532 3 22.47435898088567 0.22720364873869592 2.7743105485499897 0 0 0
577 3 23.44210033804687 1.0316270251289341 0.6902574466416089 0 0 0
531 3 22.995615243236916 3.132317970444124 2.155454187653672 0 0 0
109 3 28.2944939592523 1.5184088486201461 1.0805951844306578 -1 0 0
581 3 24.702288491214134 0.16603747090112264 2.644759112624375 0 0 0
397 1 26.60814245972708 1.6260315636618352 1.3186411419738144 0 0 0
580 3 26.026818320125724 -0.17879637721925945 0.8407402534694044 0 0 0
582 3 25.376167918429047 2.607974799118137 2.467229734037468 0 0 0
586 3 27.477990923462087 0.6776856302816554 3.0358756354496097 0 0 0
583 3 28.138990203102775 3.4145347844692635 -0.43215748649331803 0 0 0
585 3 27.466772377649928 3.199994212418681 2.602972151474503 0 0 0
2086 4 24.522273570848355 3.100737492663284 25.698019794859917 0 0 0
4 1 -0.4480786947943005 4.53449412779857 1.424536238260527 0 0 0
64 2 1.7059211158694305 4.200935889765783 2.510220948402805 0 0 0
130 3 1.491335505687427 4.726221970118097 0.9206199468493725 0 0 0
131 3 0.1899361515590099 5.3019964095560725 3.0125597808029876 0 0 0
136 3 2.872848022356154 5.311082653311244 2.7206099847915213 0 0 0
7 1 1.6291732155868588 6.972883428891085 1.000698865687023 0 0 0
63 2 28.461824240380743 6.861174540344461 2.9733028612177077 -1 0 0
132 3 0.5470813001744028 7.544960468175491 2.466473556876199 0 0 0
22 1 4.6173654086228435 3.8559653299605703 1.1987566575815458 0 0 0
181 3 4.317010079081124 5.847525891473987 1.276530841631125 0 0 0
185 3 5.109320686482299 5.072346883942693 3.3240269053362486 0 0 0
82 2 6.6910631715226945 3.8978726918590887 3.002341157078174 0 0 0
184 3 6.329066763634096 4.020064490416931 1.3588967518938397 0 0 0
190 3 7.8258055317667665 5.399917630875459 3.055227986523123 0 0 0
81 2 4.301694589031465 6.541326685165219 2.8252693823173236 0 0 0
186 3 5.680579852128128 7.332956572435245 2.9203110119041953 0 0 0
25 1 6.803421132504768 7.139349655592928 1.0323808086200184 0 0 0
1718 4 4.835878479681828 5.085498287179157 24.10200106692937 0 0 0
40 1 9.017305549177394 4.566252159500279 1.4789897352420942 0 0 0
235 3 8.879838232565124 6.424480072275914 1.3594230638737126 0 0 0
239 3 10.135842007799893 4.651734322364695 3.498986064971912 0 0 0
100 2 11.53552536125511 3.8046200340490133 3.274326062616363 0 0 0
238 3 11.283425568853218 4.868979641533128 1.3146840796592776 0 0 0
99 2 9.22546714383286 6.740075012843978 3.1150965481041966 0 0 0
240 3 10.666860648567452 7.5346491986327155 3.3017352969544023 0 0 0
244 3 12.390270662620432 5.350398307082072 3.3386606827727556 0 0 0
364 1 14.333273623166418 3.6006652248504567 0.6429700603186632 0 0 0
487 3 14.183063785614728 5.712732191435948 1.6594240138977479 0 0 0
491 3 15.072589611814688 4.830658854695603 3.772913402309742 0 0 0
43 1 11.696612275754974 6.63770929271664 1.9562342674615603 0 0 0
423 2 14.056015859334185 6.198581834001019 3.2094929711482583 0 0 0
492 3 15.57248634485487 7.293048991208494 3.4690880558552655 0 0 0
424 2 16.621382026787707 4.2886680131769745 2.601481910439639 0 0 0
490 3 16.436024170563595 3.9800292933333887 1.0041020029965029 0 0 0
496 3 17.20900508738164 5.818560954323417 3.214845740360398 0 0 0
382 1 18.386587885518768 3.508264096325859 0.20974637041399036 0 0 0
541 3 18.013065577862776 6.95928208108849 1.2570858626057146 0 0 0
545 3 19.5380733509084 5.295007758721735 3.7585716879811324 0 0 0
367 1 15.317703665650704 7.172848054735875 1.3716832959627494 0 0 0
441 2 18.59607666117085 7.044581349117896 3.166720842635167 0 0 0
400 1 22.855796504238075 4.2290569356922045 0.8373817710662377 0 0 0
442 2 21.194782905340517 4.193994319601886 3.0760357081269825 0 0 0
544 3 21.086469591490573 4.59132938585206 1.0724598498340032 0 0 0
550 3 22.151908387377777 5.536662003366627 2.9388994218941145 0 0 0
595 3 23.917206763281854 6.722069725241431 1.0456692616792789 0 0 0
546 3 20.186886612396126 7.586696618368377 2.7139130230877893 0 0 0
385 1 20.98551007231892 6.652807328440286 0.9756913668915417 0 0 0
459 2 23.682181761408962 6.8511918634267985 2.8042298942814385 0 0 0
127 3 28.71037893673967 6.78621476574116 0.050718317036996585 -1 0 0
599 3 25.114137895055332 5.5190571017797465 3.129862926432335 0 0 0
460 2 25.865472480811693 4.103550444039623 3.030174742821717 0 0 0
598 3 26.10437897619813 5.1570708358538155 0.5314586767783243 0 0 0
604 3 27.60683697657347 5.814681371754839 2.4326124678605927 0 0 0
403 1 25.87598077149827 7.099046903023719 1.4877524099092998 0 0 0
600 3 25.235801354746368 8.165141329318798 3.1332285729294065 0 0 0
10 1 -0.43616349508737706 8.923740755088943 0.9405888190957781 0 0 0
70 2 1.7348190595900679 8.965182957347341 2.922065537642118 0 0 0
148 3 1.5470041451812215 9.07007948307045 1.2087651662029115 0 0 0
149 3 -0.06404841595456978 9.79794696866619 2.596523780917649 0 0 0
135 3 3.2941971964823162 7.935183088541519 2.3352510968970415 0 0 0
13 1 1.819916209886153 10.935228977802412 1.495484209394037 0 0 0
69 2 -0.4629027258003132 11.653654144328277 2.4345332571117293 0 0 0
145 3 -0.5611010290312165 10.888790539072657 0.8017963954903227 0 0 0
154 3 2.513407367942961 10.322014926783211 3.2875836534125034 0 0 0
28 1 4.527396311288505 8.449381288228329 0.626860687869861 0 0 0
203 3 5.415560397556038 10.19117655508618 3.221026501463413 0 0 0
88 2 6.740722046274449 9.059265361616186 3.2357252812374213 0 0 0
202 3 6.389526880440785 9.118485933433194 1.339498018727995 0 0 0
87 2 4.648366928962992 11.730035736860927 2.3603145563830505 0 0 0
199 3 4.518667212964637 10.34455498110408 1.027426369947826 0 0 0
31 1 6.559630311721984 10.956195779562837 1.2205335775759558 0 0 0
208 3 7.8560973441958595 10.527538900585446 3.4002525135304644 0 0 0
46 1 9.781579343198565 9.171409487965194 1.9158687298839001 0 0 0
189 3 8.271010081258458 7.88906673290737 2.8208487198277363 0 0 0
257 3 10.304934646720033 10.288307090343443 3.247825802787231 0 0 0
106 2 12.213338538784043 9.077411081585417 3.3166570267520212 0 0 0
256 3 11.901171468942904 9.517123720933302 1.5348032466917036 0 0 0
105 2 9.156852208228845 11.636453751146679 2.8517420374596147 0 0 0
253 3 8.816595128361342 10.749160292520907 1.2007204623833907 0 0 0
49 1 11.849911512777494 11.34251271959525 1.5445762764958149 0 0 0
243 3 13.403575688643855 8.026831826275602 3.0404565876348624 0 0 0
370 1 13.584694680980979 9.041506916157891 0.7733297649087327 0 0 0
509 3 14.68051306717554 9.89208021004772 3.3858900911067487 0 0 0
262 3 12.620068106689022 10.725032682054453 3.481789772040088 0 0 0
429 2 14.239703050804952 11.699575542281655 3.5500164462019166 0 0 0
505 3 14.194149476988107 11.19402319625749 0.9474604190277702 0 0 0
430 2 16.214158224044006 9.145063667249016 3.1606644792542413 0 0 0
508 3 16.02023356401436 8.938276034113343 1.3877098254207691 0 0 0
388 1 19.161407572112427 8.825908788276864 0.719244543905045 0 0 0
493 3 17.633330078924146 8.46587976127741 27.11525121237601 0 0 -1
495 3 17.88693368957682 8.650895449815373 3.064684634766301 0 0 0
552 3 19.84079860799476 7.568459753361697 -0.214668233512614 0 0 0
563 3 19.85455198534099 10.330095653727671 3.511143584876998 0 0 0
373 1 16.186420637086812 11.469568585554159 0.8617740653946888 0 0 0
514 3 17.2089157466184 10.963402248856227 3.3969039264552015 0 0 0
447 2 18.552429075956272 11.542687105168893 2.7879725201857277 0 0 0
559 3 18.23908902823976 10.668075585884369 1.0250513930809675 0 0 0
406 1 23.242954400380366 10.224268583810192 0.9586127340662323 0 0 0
448 2 21.07505085638567 9.354139731898245 2.8107667487507833 0 0 0
547 3 22.264916244857655 7.687508239138499 27.28664832872031 0 0 -1
549 3 22.69081435771494 8.35524961587631 2.253341949127632 0 0 0
562 3 20.761664098079315 9.828204102263554 1.1751120758040017 0 0 0
391 1 21.067001656938725 11.779039359201965 1.5025598804747107 0 0 0
465 2 23.734208859073565 11.832425534660004 2.9999885129294594 0 0 0
613 3 23.11162756224834 11.94631451100222 1.5598469767297658 0 0 0
617 3 24.8685305754762 10.634300216059975 2.919186850113288 0 0 0
466 2 26.41051705432797 9.248689512574897 2.6598383032358575 0 0 0
603 3 27.49269619771273 8.177839670726677 2.0639082430103217 0 0 0
616 3 25.79800034082058 9.811534448929027 0.8109732677810011 0 0 0
622 3 27.464144906592576 10.877605491691018 2.3916660873936664 0 0 0
16 1 0.4975073136777697 13.583757272431027 0.3111583701491303 0 0 0
150 3 1.0869041811763407 12.42577056725553 2.066816464937086 0 0 0
153 3 3.4834275838386475 13.15652589793711 1.9409236837710102 0 0 0
778 2 2.0664560138822847 14.064516022568178 2.563297331527994 0 0 0
832 3 2.247331584154167 14.142996091993464 0.262357680258947 0 0 0
833 3 0.3941470031900467 14.69111679680792 2.233266617133349 0 0 0
838 3 2.736081947054043 15.540264309770716 2.66910219198198 0 0 0
34 1 4.78386159336022 14.224394671420686 0.7687393286642685 0 0 0
204 3 6.003821608572663 12.75425318333371 1.962038946195885 0 0 0
883 3 4.456714326876039 16.241710484990637 0.3809252312273128 0 0 0
887 3 5.2532084074227 15.291692602157486 3.183105754802696 0 0 0
796 2 6.764239507610454 14.431703965867994 2.925508098846728 0 0 0
886 3 6.802119739283171 15.141404352379128 1.3485668855139048 0 0 0
892 3 7.484350920521287 15.63201776384565 3.338598633897491 0 0 0
52 1 9.801468121416397 14.226746452316604 0.7162474769186911 0 0 0
207 3 8.263768398676962 13.09448310157519 2.430719725284207 0 0 0
258 3 10.575854988497383 12.504305650171643 2.760785525005787 0 0 0
937 3 9.57657529295137 16.669603847209014 1.4229948954324967 0 0 0
941 3 9.938454691462143 14.787112484144771 3.472572252680931 0 0 0
814 2 11.485181679129337 13.956483288622428 2.9258231304372204 0 0 0
940 3 11.224271057906227 15.14510853467601 1.5092802528375278 0 0 0
259 3 12.972997728480781 12.739797985549552 -0.41135556214869506 0 0 0
261 3 12.88914033920944 12.889259051943476 2.5383127268554415 0 0 0
376 1 13.18533640020071 14.33866050767244 0.8794412400633573 0 0 0
510 3 15.55052018018024 12.561588747932726 2.830056539773591 0 0 0
946 3 12.854017618309108 15.255975860704407 3.3283074963242267 0 0 0
1189 3 14.671677364470002 15.749686132110782 0.8253600958101626 0 0 0
1193 3 15.6416933081032 14.972564714645173 3.451343108724461 0 0 0
394 1 18.603796143802008 14.181983390992702 0.476182428272248 0 0 0
513 3 18.005035813615656 12.97712791879855 2.205115093132077 0 0 0
564 3 20.00904532341706 12.628189107092288 2.55126101647153 0 0 0
1138 2 16.63110974989408 13.9446650110907 2.822238733384194 0 0 0
1192 3 16.809939897342716 14.669176705343673 0.4196495366533517 0 0 0
1198 3 17.7862627286395 15.43305327551219 2.717782811081575 0 0 0
1243 3 18.78992624786278 16.064914768016408 0.5856615015845958 0 0 0
1247 3 20.151191182211576 15.397079213280456 3.1564252592775377 0 0 0
570 3 19.816402961864597 12.77477971402174 -0.18906467215589073 0 0 0
412 1 23.598032500239157 13.740030775220646 0.8603436787509817 0 0 0
565 3 22.471506423088577 13.101863440902907 27.252374679783237 0 0 -1
567 3 22.759089952524132 13.315335259510974 2.978145453217401 0 0 0
1156 2 21.22565463689499 13.959946935528071 2.8187879197678223 0 0 0
1246 3 21.405948552638016 14.024848471252884 0.8145961948855827 0 0 0
1252 3 22.598464650930683 15.83571256330925 2.6795224752819777 0 0 0
409 1 26.141250745390494 11.885863585194139 1.1943331553694059 0 0 0
618 3 25.089787677381306 13.027289773686821 2.168715457592699 0 0 0
621 3 28.140885002026014 13.129819585446047 2.0469325793649746 0 0 0
829 3 28.659118242446805 15.295549451969507 1.0172991577491053 -1 0 0
1301 3 25.022414818759096 15.526202134513948 3.110319501037964 0 0 0
1174 2 26.14726004529574 14.37692715626252 2.4448783933638802 0 0 0
1300 3 26.01403258020941 14.849067785653958 0.8039116388208305 0 0 0
1306 3 27.01200101844623 15.672881011237223 2.941047310381318 0 0 0
721 1 1.8659125710016342 16.02181765697821 0.7714486391317132 0 0 0
834 3 0.8446955213891911 17.205245895152185 1.717077010034826 0 0 0
724 1 -0.6342667166654803 18.797574530019098 0.03888748923800378 0 0 0
784 2 2.026015939493952 18.460083563229386 1.663575494205518 0 0 0
850 3 2.5774901593542627 18.923954816498398 0.3064592425601651 0 0 0
851 3 0.5972293477686568 19.72204826651218 1.7349262429328025 0 0 0
835 3 2.8090260984450883 16.98765400535326 -0.7315134433858077 0 0 0
837 3 3.2488931728987067 17.788773200911784 2.293276597017042 0 0 0
795 2 4.335200375879429 16.595544244039147 2.6987587303053147 0 0 0
888 3 5.8014385729316675 17.831782534193923 2.6170151991247157 0 0 0
739 1 7.258807006942639 16.599481288811987 0.9908866096720805 0 0 0
742 1 4.582908981742747 18.547521193243732 0.700726573953059 0 0 0
905 3 5.566517323536775 20.544488893899853 2.9969866533507714 0 0 0
802 2 6.97835741789229 19.27500717041016 2.720752401186645 0 0 0
904 3 6.6274748621318835 19.509486908382517 0.8376206805793236 0 0 0
813 2 9.265842814512082 16.29001780040035 2.794604835295248 0 0 0
757 1 11.865532367603828 16.89348852323388 1.007967868646172 0 0 0
942 3 10.932927362606863 17.18460212938905 3.0061913602361607 0 0 0
948 3 8.902113576726398 16.948086028385326 26.995978147088408 0 0 -1
760 1 9.90821629359223 18.530970762233014 1.5217606276061049 0 0 0
891 3 8.305587150144637 18.215370506860538 2.456567584556703 0 0 0
959 3 10.40663208761857 20.00412460075299 3.5775980080489695 0 0 0
820 2 11.90918163987925 18.88390562542069 2.95815144909228 0 0 0
958 3 11.552414754018637 19.263687888105938 0.23580102933754665 0 0 0
1137 2 14.39607907781344 16.418554311410023 2.657195259865723 0 0 0
1194 3 15.520450241314496 18.13893879403758 2.2373512089101 0 0 0
945 3 13.141227182637103 17.658748800375214 2.4888788637359442 0 0 0
1084 1 14.387536015477853 18.820371507529224 0.45459388960755853 0 0 0
1211 3 15.473333454889318 20.425214538488227 3.3676578346599024 0 0 0
1081 1 16.65678793350645 16.563173259802312 1.2494229798886007 0 0 0
1155 2 19.099359244612216 16.378985770889617 2.0453167765773834 0 0 0
1144 2 16.668093387815258 19.435618741082834 2.6210604143896554 0 0 0
1210 3 16.766723951103263 19.77709543610761 1.0908367488038384 0 0 0
1102 1 19.10005044740681 18.874979335155285 0.8276838019743187 0 0 0
1197 3 18.341155234206806 17.99906035846585 2.0195820890400458 0 0 0
1265 3 20.39223012964377 19.823826404903258 2.4832939853528853 0 0 0
1248 3 20.670044629277843 17.36884879279663 2.185575341882248 0 0 0
1099 1 21.738584348584144 16.30026912310286 0.9757763039902121 0 0 0
1173 2 23.965253243977795 16.797034282542963 2.37925358212206 0 0 0
1297 3 23.710341248016086 16.17025108367977 0.5466365068142369 0 0 0
1120 1 24.48516423142464 19.06988458487179 0.5596267305353708 0 0 0
1162 2 21.498025674000775 18.65596936562245 2.2026102273478396 0 0 0
1251 3 22.94544097888058 18.057830730936786 2.299887411745003 0 0 0
1264 3 20.9441406581881 18.72431842778178 -0.024253461888794736 0 0 0
777 2 -0.5318577478395541 16.098436951703217 2.263691564540394 0 0 0
1117 1 26.80786905876396 16.62988456487026 0.7096599847786256 0 0 0
1302 3 25.97568020844311 17.575586903628626 2.092874682548026 0 0 0
1319 3 25.081062524040615 20.203089110672806 1.963483566935054 0 0 0
1180 2 26.99739214957531 18.97698694222502 1.9527962098965617 0 0 0
1305 3 28.152415513627176 17.95372759241798 1.3135325474320974 0 0 0
1318 3 26.4453511340824 19.052251191544904 0.20570429569094084 0 0 0
856 3 2.647865547795216 19.783098180553903 2.7842885623052926 0 0 0
727 1 1.6028748513345512 20.770535646910194 0.2999697577249354 0 0 0
730 1 -0.2412386285109751 23.69269922369508 -0.25083747616649776 0 0 0
783 2 -0.23174387584986034 21.486195179380967 1.4410597758201167 0 0 0
790 2 1.492565529850209 23.99306015362404 1.820816062506446 0 0 0
852 3 0.9543353727416686 22.473504318197048 0.9185972699938112 0 0 0
868 3 1.5987973799859212 24.447953480016007 -0.3936870976210754 0 0 0
869 3 0.4798638084665481 25.37404252423492 2.2607614136430407 0 0 0
855 3 3.1655263967090637 22.615217802319243 1.7523269930507452 0 0 0
901 3 4.293525405556944 20.652456407362617 0.6341649388679726 0 0 0
910 3 8.053566149331491 20.7163915942016 2.9754726950616233 0 0 0
748 1 4.46299635521405 23.676617123929777 1.2944961389784964 0 0 0
801 2 3.959545640321563 21.11570564266912 2.4627008414574556 0 0 0
906 3 5.8442056257893915 22.553112097360067 2.000620107436564 0 0 0
745 1 6.143145391420923 21.269700397083984 0.573051638607269 0 0 0
808 2 6.918723497301677 24.202543025175228 2.598229203537728 0 0 0
922 3 6.037019654405613 24.248989269733375 -0.20060909041100794 0 0 0
955 3 9.34109695832246 20.723411914598515 0.716852436291354 0 0 0
766 1 9.016446138512155 23.907656824951307 0.3728894820823252 0 0 0
819 2 9.322783376900677 21.55583260509117 2.5482067518380402 0 0 0
909 3 8.267073404074956 23.068886024920147 2.2493193109108263 0 0 0
763 1 11.90984140477939 21.30056865039241 1.2033360154491595 0 0 0
826 2 11.608606421474656 23.93170176477292 2.9285285297606847 0 0 0
960 3 10.82466005790546 22.437553070590372 2.863978157430416 0 0 0
976 3 11.488570410609599 23.816525899393 1.047089927346519 0 0 0
964 3 13.050767101373955 20.31499535401296 3.036464666393154 0 0 0
1207 3 13.467971585219452 20.412773875449695 0.5511544225077849 0 0 0
961 3 12.837228961485993 22.554134232662054 -0.3639647674419639 0 0 0
963 3 13.616042343288914 22.755679860052823 2.0534541331118086 0 0 0
1090 1 14.377353905672674 23.69285167272892 0.5281362299424732 0 0 0
1143 2 14.438686959207931 21.73013006491613 2.8105618405425123 0 0 0
1212 3 15.895067893805841 22.58272200716812 2.264230979586648 0 0 0
1216 3 17.89913696691381 20.06163020804667 3.365406076663411 0 0 0
1261 3 18.76603790674683 21.627665546566284 0.9748867292351071 0 0 0
1087 1 16.715705353806793 22.11317188668477 0.21815511835208823 0 0 0
1150 2 16.554445779228434 23.97858443342242 2.548787026629901 0 0 0
1108 1 19.079587370967193 23.904327776345287 -0.2136628945788256 0 0 0
1161 2 19.053105156494 22.53621884875817 2.1148346809417737 0 0 0
1215 3 17.939069958660507 23.629759882507784 1.7264314775676994 0 0 0
1266 3 20.661984946014005 22.651736745122545 1.7157718625242677 0 0 0
1272 3 20.691552748872727 23.08471535515788 26.99240473839746 0 0 -1
1270 3 22.618528677354075 20.1764306198242 1.5334320812297646 0 0 0
1315 3 24.848314326869147 21.623293439210862 0.00949802348360318 0 0 0
1105 1 20.953963703734416 21.12449722598164 0.38933611187950157 0 0 0
1126 1 24.738715615184493 23.86234615265049 -0.31647366851203157 0 0 0
1168 2 21.49637016279915 24.259423787641644 2.115939566645212 0 0 0
1179 2 23.89934023859697 21.651402628727297 1.2953166325466001 0 0 0
1269 3 23.08922247251489 23.190102869670785 1.2159002884940613 0 0 0
1282 3 21.629260460555894 24.965120436474418 0.1519407447687895 0 0 0
847 3 28.290741288739568 20.844591112427914 -0.1767628831567375 -1 0 0
1324 3 27.77957827669186 20.5209183192131 2.255057336407856 0 0 0
1123 1 26.69901211967918 21.68442683650078 -0.4713020931972682 0 0 0
1186 2 26.952024832156543 24.366697813258746 1.386780080031547 0 0 0
1320 3 25.877376546725372 23.102879167600292 1.5886732563342942 0 0 0
1323 3 28.283247653774364 22.931004340329203 1.099237156510246 0 0 0
1336 3 26.65001576501402 24.748925048228692 -0.20847837564418725 0 0 0
733 1 2.1721522460989386 25.987949431179487 0.2530121244392872 0 0 0
736 1 -0.1973867147158549 -0.1609487016497645 0.2075692147484639 0 1 0
789 2 -0.334908979076215 26.741520817480072 1.9664614303214796 0 0 0
870 3 0.6316575954553618 27.950817744653225 1.645572792339009 0 0 0
874 3 2.9598547524335106 25.20544761628009 2.4153909537739247 0 0 0
876 3 0.37039029300404813 28.665121551164024 26.377401563998383 0 0 -1
873 3 3.010983262557194 27.73960525683984 1.9021973215869186 0 0 0
923 3 5.236059786132494 24.648396013015525 2.6881848908181367 0 0 0
754 1 4.887879906950391 28.313677549900152 0.10864868573568576 0 0 0
807 2 4.294110497662798 26.365859643549463 2.1798669845361114 0 0 0
919 3 4.307616478389678 26.232195006868935 0.6012059405269232 0 0 0
924 3 5.719074419606812 27.339958939531783 1.9148311587632802 0 0 0
751 1 6.140644188767138 25.74351734831653 0.5866524921790315 0 0 0
928 3 7.438797266503309 25.622785408400862 3.0005701185242364 0 0 0
94 2 11.94643648615709 -0.7711238254847012 3.311746969991619 0 0 0
977 3 9.985306597370844 24.79528027912376 3.16961083763555 0 0 0
825 2 8.934570150650957 26.141783381271413 3.2934601670395427 0 0 0
925 3 8.142724566978705 27.791162387188702 0.38768242772328776 0 0 0
927 3 8.348063014739994 27.813818623144236 3.1128926989536465 0 0 0
973 3 8.275394767122844 25.950763055277047 0.8826762183795058 0 0 0
769 1 11.960144414925828 26.196285841106306 1.1266336985734517 0 0 0
978 3 10.342890110266973 26.421559332745822 2.290926685494908 0 0 0
1229 3 15.278318992950346 24.703929660142798 3.5899548416505533 0 0 0
981 3 12.751870852945368 28.031792274615857 2.1818224023391957 0 0 0
982 3 13.057725798812704 25.195744479950747 3.1180002999114675 0 0 0
1096 1 14.166819866515796 -0.7109054856530561 1.36562588972708 0 1 0
1149 2 14.21894046474399 25.92841038640016 2.4135529407378145 0 0 0
1225 3 13.483852376238515 25.35100320854895 0.6909926048939372 0 0 0
1230 3 15.479849008009438 26.914517449150797 2.7646878965666533 0 0 0
1236 3 15.660174181083658 26.920597840007048 26.761329068118272 0 0 -1
418 2 16.33471952641674 28.554974104987522 3.3629382720924363 0 -1 0
1228 3 15.596012283523649 24.896463650848382 1.1854158080779298 0 0 0
1283 3 20.23760563719655 25.0640393793719 2.1446029005206824 0 0 0
1093 1 16.750331108932357 26.569652366765112 1.179664294647199 0 0 0
1234 3 17.520833767598084 25.584020581030853 3.2457515573270537 0 0 0
1114 1 17.850215545411864 -0.357773369121844 1.0285991779697699 0 1 0
1167 2 18.875413255405025 26.499788639252042 3.0275947940411876 0 0 0
1233 3 17.634177869649072 27.791864247055567 2.6249170967789124 0 0 0
1279 3 18.448520209057108 26.385635632168682 0.27525880176807727 0 0 0
1284 3 20.122073580260473 27.618871122073774 1.8088176275299732 0 0 0
1111 1 21.480948123600015 27.030790842930283 0.4040991419792854 0 0 0
1132 1 23.887931872650498 -0.7671186707578528 0.679495803030792 0 1 0
1185 2 23.804950768597315 26.401311533480868 1.7754143114349517 0 0 0
1287 3 22.66446513600881 27.691104315652517 1.7029595973656702 0 0 0
1288 3 22.632164541537346 25.36329281427173 2.2278489222625217 0 0 0
1333 3 23.854611591334166 26.407494189194427 0.0973910116461586 0 0 0
454 2 26.186680830693028 -0.7256567459611565 2.246859394315461 0 0 0
1337 3 25.203532351264116 25.10482623649018 2.642324942945265 0 0 0
865 3 -0.042439161540234416 26.245982483017915 0.042365293290454464 0 0 0
1129 1 26.67931715256174 27.64476538757611 -0.013890489780627235 0 0 0
1338 3 25.352623024374008 27.46423937159058 1.5673430164311588 0 0 0
1341 3 27.851230598106596 27.987931722554418 1.669963790270558 0 0 0
1342 3 28.012185697570324 25.365591188514056 1.9312492717540959 0 0 0
3 1 1.7061245665710967 1.3085965414964313 4.824465943214974 0 0 0
59 2 28.71081452348639 1.3025967051162501 5.587816502617313 -1 0 0
60 2 1.5603723267431273 -0.7523807706319883 6.0350389242520865 0 0 0
116 3 2.591883786470028 0.6118377439674656 6.22241571282691 0 0 0
119 3 0.11234336894388519 -0.0056070579430058665 5.3978516082652925 0 0 0
126 3 -0.0937447491912704 2.2428990288041235 6.551203425258906 0 0 0
579 3 -0.4830314442862299 2.018105715175943 4.225225381607169 1 0 0
2 1 4.3750710487139415 28.57315258096084 4.319017945735336 0 -1 0
21 1 6.252004001399981 0.9906387944199129 4.3341820498404005 0 0 0
77 2 4.1626352412600145 1.6880685732366971 6.966978020642155 0 0 0
111 3 4.7400376416240855 1.7083411412291039 5.480896888715037 0 0 0
173 3 4.832475097396582 -0.25824300050982485 7.077430955671352 0 0 0
180 3 5.697321565796029 2.4451516881609434 7.744314685700754 0 0 0
78 2 6.7071586239077465 28.516349175453545 6.672447474739555 0 -1 0
170 3 7.239600760740352 0.2578326105117257 6.048970801402205 0 0 0
20 1 8.79114534578728 28.69516706566081 4.949180882015042 0 -1 0
95 2 8.588477732066021 1.4837151070786172 6.4032148414258065 0 0 0
165 3 9.333617684670157 1.0254225278060192 4.550312620232558 0 0 0
227 3 9.851787985327809 -0.4705952928996237 6.5451554056893 0 0 0
39 1 10.921885338557383 1.1113134718608797 5.134881090067342 0 0 0
96 2 11.266069398271362 -0.610551349497153 7.074795841889179 0 0 0
234 3 10.279758875800653 2.245152377576532 6.324915032065776 0 0 0
178 3 7.889944062919652 2.7063061496094454 6.517903872738442 0 0 0
219 3 13.834035967261228 2.294519755789826 4.582584691438991 0 0 0
224 3 12.258767480306764 0.593183736276486 6.750312128677072 0 0 0
419 2 13.641829310435485 1.272567841125622 7.546958063838213 0 0 0
479 3 14.976109809821777 1.0985339104762344 6.717869980641994 0 0 0
363 1 16.042810795357855 1.5761970036892405 4.581332808309351 0 0 0
476 3 17.157629411371413 1.0075368031702785 7.09927802886814 0 0 0
437 2 18.770296142825657 1.795245355778139 7.191405804501265 0 0 0
471 3 18.400321045523715 1.2984477347379162 4.340375087975205 0 0 0
533 3 19.769876900587615 0.34083821883631304 6.551511244073957 0 0 0
381 1 20.975587597226625 1.7130349419011255 5.097705080558687 0 0 0
380 1 23.13322146188896 -0.47837339884304453 4.359538718692407 0 0 0
438 2 21.232773960252604 28.598447570002286 6.451907365471467 0 -1 0
455 2 23.512605811076455 2.2740100684076507 6.079276936649025 0 0 0
525 3 23.807557432112407 2.625211115467993 4.391839423050903 0 0 0
530 3 22.41601984999627 0.24717299913342217 6.416090919328468 0 0 0
587 3 24.76758903051233 0.6702492825626056 5.602046664295615 0 0 0
398 1 28.68148381691773 -0.43286792680490904 3.864707122740544 0 0 0
399 1 26.09530527648585 1.6099172495863718 4.349401313419209 0 0 0
584 3 27.337404394581156 0.1481010071802601 5.188929176542267 0 0 0
594 3 24.587040581143494 2.4329229958785556 7.0619523860014874 0 0 0
9 1 1.38195847051295 6.214950235783874 4.223312126290912 0 0 0
66 2 2.0421174072166286 4.517278791099434 6.402425009355869 0 0 0
110 3 1.4954136370680682 3.782899535004936 4.74970584626976 0 0 0
134 3 3.1092852585832382 5.387111737153131 5.371234852608902 0 0 0
137 3 -0.08602638748824942 5.092446261958653 5.887511931362654 0 0 0
124 3 3.2126564761527043 3.084085097372151 6.928492678563117 0 0 0
65 2 28.577692330774696 6.650319831345657 6.696613485231767 -1 0 0
144 3 0.16133975847320026 7.9186658747154866 6.980660566941763 0 0 0
597 3 28.754541891374235 7.614415003881845 4.174981255409826 0 0 0
8 1 4.699864080444892 3.6444392671928334 4.825604976505896 0 0 0
27 1 6.678920557317036 6.304042141131181 4.528629688572562 0 0 0
164 3 7.224929264646571 3.687834624903723 4.418159263135744 0 0 0
191 3 5.704681505528901 4.792341519274234 6.130419331424833 0 0 0
84 2 6.71435411930304 3.7347593513729693 6.450513246345303 0 0 0
83 2 4.013385955846818 6.695912528926956 6.161368373087358 0 0 0
129 3 4.492619496115445 7.443449512929741 4.837719580084826 0 0 0
198 3 5.209841579681078 7.809589065919024 7.34788147042495 0 0 0
26 1 8.706954299894047 4.343860542490338 4.886449245440755 0 0 0