LAMMPS data file via write_data, version 2 Aug 2023, timestep = 5200, units = metal

360 atoms
4 atom types

-0.8763925307076548 14.886392530707727 xlo xhi
-0.8763925307076548 14.886392530707727 ylo yhi
-0.8307275380298442 14.110727538029753 zlo zhi

Masses

1 24.305
2 28.0855
3 15.9994
4 4.002602

Atoms # atomic

114 3 0.6641329063563437 2.368376642588752 0.9608292453854936 0 0 0
57 2 1.4874539230030912 0.7360912715325467 1.643773691877958 0 0 0
163 3 3.261012891452184 0.8025391615254212 1.1046007133935238 0 0 0
226 3 1.8947086692657078 14.28585948090727 2.013049924425726 1 -1 0
223 3 -0.28306938846960716 -0.03422160306034139 1.1680388521172311 1 0 0
118 3 4.051829755779681 -0.24814324926404008 3.7483622212988044 0 0 0
75 2 4.577196756197396 2.2926173599111435 1.8094290164879712 0 0 0
167 3 5.6516777956832245 1.4902020427392446 0.9806799401255573 0 0 0
19 1 6.426319629694311 2.3892753270922173 -0.17716477476423165 0 0 0
34 1 4.521139815162299 -0.4803913896516884 0.052584663049995206 0 1 0
172 3 8.826858736460714 -0.286535419145983 2.9895962297448393 0 0 0
171 3 7.673718542466752 3.352046176064537 1.2376717511789321 0 0 0
93 2 8.939720159370344 1.173605472582905 2.763115973453363 0 0 0
221 3 10.254639313997469 1.6454908625489484 1.8529938312281766 0 0 0
40 1 10.004834349514432 3.2117109393061236 0.4039754154881887 0 0 0
217 3 10.704581573076462 3.4419676174338303 13.634523386436424 0 0 -1
37 1 14.47973942019171 1.2919154378736764 0.562689698743067 0 0 0
220 3 13.451560742077888 -0.11173294626907793 14.058655288393716 0 0 -1
319 4 13.746061806032879 14.782245725676196 13.642400115265 0 -1 0
117 3 1.0969578718608741 3.9043298581742887 3.121669072445823 0 0 0
130 3 2.4792129710946984 3.958529803229955 0.38997572566318284 0 0 0
64 2 1.1930637024267687 3.744525157374082 1.4661308224992649 0 0 0
233 3 0.2738097781761064 4.961598171452568 0.4997801864390492 1 0 1
62 2 -0.08584521012138546 3.944922977695459 -0.7878191347107304 0 0 0
9 1 1.4125324133677823 6.986846587270352 3.808370213321904 0 0 0
168 3 4.983439249222173 3.7497615195309306 1.2467290206622943 0 0 0
136 3 4.418925217540651 6.900218001354891 0.8156546676497234 0 0 0
82 2 6.486434015159718 3.5582827119472222 2.11429753638213 0 0 0
22 1 3.9291545918305086 4.875855452143234 3.188446488189115 0 0 0
184 3 6.254683734711505 4.251643418627467 -0.789232173286301 0 0 0
187 3 8.434861731918524 6.711883841706549 2.06021736963778 0 0 0
99 2 9.547846890862008 5.5322749363149555 2.595723101077844 0 0 0
239 3 10.987899876520105 6.394778959488071 2.014434529255928 0 0 0
222 3 10.123606778723861 3.897955128038931 2.758151414333121 0 0 0
80 2 7.492671163110725 4.780662039542386 0.40625276397840815 0 0 0
225 3 14.350544917845413 2.8446094551941523 1.9709294355386398 0 0 0
100 2 13.75569064282782 4.158924804607193 1.0712730146414418 0 0 0
244 3 11.97383664469786 3.9181029483383103 0.8471633831095915 0 0 0
98 2 11.962309213213313 4.603802103919021 13.932496297769767 0 0 -1
120 3 13.920429221932956 2.9859688488242524 -0.053250901672236894 -1 0 0
7 1 0.7182146572967485 6.935289934011697 0.9076098467810485 0 0 0
132 3 0.020858017509623572 7.609878154802809 2.8346348196684885 0 0 0
135 3 3.2010919857822993 7.419501342376623 2.4165582162592774 0 0 0
133 3 2.316801118163481 6.613665395112613 -0.7036637939692792 0 0 0
70 2 2.301141621607847 10.30609510682879 2.6879186372939787 0 0 0
148 3 3.760080654960821 9.82760190066973 2.0188659024185545 0 0 0
68 2 1.2615106334414565 10.38039868580665 -0.26306399807759684 0 0 0
127 3 0.8980466236615161 9.001645662809633 0.07487408136100304 0 0 0
149 3 0.6579907045189541 10.498079288994639 2.450487045060409 0 0 0
81 2 4.699087734542239 8.067062199982262 1.7365836437260649 0 0 0
181 3 5.324392552501426 9.005923713185593 0.3565786610923547 0 0 0
186 3 6.134141546501207 7.3952693980849595 2.5477567770121268 0 0 0
86 2 6.876983319595474 9.6441315554256 -0.1541668769789022 0 0 0
202 3 7.545231017041209 9.822989386187405 1.3946383007638365 0 0 0
46 1 9.489917686014946 9.557055782411897 2.1748981394363307 0 0 0
246 3 9.510892734548435 8.195940387585203 -0.3283122422853143 0 0 0
253 3 9.654650548257655 10.681632836830934 0.8435606117759786 0 0 0
97 2 8.738876937893865 7.2720042502390285 0.572293826951304 0 0 0
43 1 12.24125161053781 7.13658754536757 0.5248617257205344 0 0 0
10 1 14.730897405655893 9.163411820244058 -0.013850044753028201 -1 0 0
256 3 11.993475260415298 9.080253356758798 1.205731432962141 0 0 0
262 3 13.843924503773446 10.619600233021492 2.1133905892676914 0 0 0
238 3 14.262559243393161 7.2135193858927025 -0.1058410448283319 0 0 0
143 3 1.4890202313595213 11.810060570287808 -0.7313189928907231 0 0 1
13 1 1.6556830329915315 13.968445608370146 0.2279396560458442 0 0 0
69 2 -0.007743556684842723 11.89238384407252 2.9620855957520336 0 0 0
150 3 -0.49914801810287124 13.587340123667735 2.561916285960745 0 0 0
112 3 3.413406717680096 13.718276793297278 -0.5719373445200544 0 -1 0
28 1 4.648090544910956 10.959240052492277 0.47755028643368114 0 0 0
203 3 5.480937459077288 12.129210950285303 2.3353765323505806 0 0 0
199 3 3.1782083026737054 12.18691713427504 2.0571613270970697 0 0 0
204 3 6.124138862090613 14.235590618798636 0.5647602167617536 0 0 0
76 2 6.896146874134427 14.085296717926964 1.8955539249881426 0 -1 0
52 1 9.53470718748142 14.834181870795085 0.34423590321624853 0 0 0
31 1 8.096466190132746 11.863516583296674 0.4628001184463957 0 0 0
207 3 8.758711993366303 13.326078196680326 1.6095905449701866 0 0 0
105 2 10.171663899995874 14.107061771341895 2.8147038518135674 0 0 0
258 3 10.760134654100906 12.792520012305756 1.910441376028535 0 0 0
16 1 14.074987400500047 14.383635267878528 1.4017713384034027 -1 0 0
145 3 12.80034373393685 13.31464819513252 -0.06652124154310046 -1 0 0
94 2 11.821688066087631 0.654635779501626 1.8268331795509485 0 0 0
49 1 12.086513023577387 12.181464643532 0.9585703029035217 0 0 0
261 3 13.248768632312231 0.09583838017802937 2.7550939297589343 0 1 0
113 3 1.7021377966352094 1.066396223855173 3.2514980624268928 0 0 0
44 1 2.3447020696661345 2.6408445452315266 3.835559378264941 1 0 0
21 1 5.863929494720563 0.7148967763821126 3.1620216837220876 0 0 0
3 1 4.856019912385554 2.196505814777614 5.807250838886955 0 0 0
111 3 4.478055879244499 2.5013147670585747 3.4022223989925626 0 0 0
173 3 6.666501292207296 0.976049955470502 5.754927868930883 0 0 0
165 3 7.4156841040320405 1.5412354869599425 2.3228170606019125 0 0 0
200 3 6.441964777424301 14.142318341421623 3.241143410723785 0 0 0
95 2 12.104414983339158 1.6381921649394413 5.634585185464064 0 0 0
227 3 9.369859103495996 1.5967635374411389 4.1660641998292425 0 0 0
119 3 0.157829507285266 -0.2535795944063264 5.640755061953239 0 0 0
219 3 -0.6794756952555218 1.870716546203547 4.2567627126605885 1 0 0
59 2 -0.518197029362546 1.1648110435697712 5.975618314974294 0 0 0
39 1 11.871983211165505 3.467483453942492 3.072123282439634 0 0 0
224 3 12.197194328944015 1.770443133284378 3.8982582405085466 0 0 0
232 3 0.05552776245948021 2.6219007981535296 6.8107678465004025 1 0 0
254 3 11.217524556372927 -0.3476385030543958 3.14312306157249 0 1 0
4 1 14.825635492832467 3.88889515880809 3.6678064042133984 -1 0 0
126 3 3.2274109871792502 3.3231664314870617 6.032577797049048 0 0 0
66 2 3.6677900778598707 5.614240432712044 5.470910530018868 0 0 0
237 3 1.8792466621722501 6.224520930057414 5.921876641850536 1 0 0
65 2 0.378658944788101 7.059348853387966 6.070504513384889 0 0 0
142 3 3.3146783541511677 5.04407350421629 7.418692729123686 0 0 0
185 3 6.7317024156746115 5.202304618623024 2.3341047135317883 0 0 0
110 3 4.335476501680868 7.143736934288357 5.21875586297641 0 0 0
164 3 5.313294067751306 4.219947476521818 5.121751711892979 0 0 0
8 1 6.783099850076147 5.26645126425383 4.323542124161825 0 0 0
190 3 9.662113120353656 5.957720317346064 4.512030271560421 0 0 0
26 1 8.145755423934409 3.002097429580779 4.526578072491535 0 0 0
101 2 8.847590342848312 7.1468955170845 5.666390066920287 0 0 0
131 3 -0.8017746319359305 5.5395030488376875 4.134090146074951 0 0 0
63 2 14.148828633712638 6.9417049570899305 3.4932996674927503 -1 0 0
178 3 12.568788379337045 5.10215230956281 4.1980313013585215 0 0 0
102 2 13.049375973051067 4.836889470262696 5.606372282578832 0 0 0
242 3 12.806775637720827 5.68027464459872 7.766221031692705 0 0 0
243 3 14.622362009878968 7.467620452970424 5.551817905442049 0 0 0
144 3 1.3940920994460826 8.783010206758876 6.078883038264053 0 0 0
50 1 0.0965326669462011 9.8985485682827 5.18832949094807 1 0 0
154 3 2.6439712833060725 10.688474777146002 4.331608247415738 0 0 0
88 2 7.401024495209992 8.219421991133713 3.2103775887481527 0 0 0
182 3 5.438296831585801 10.705737106773718 6.180607005982978 0 0 0
27 1 3.111578493305476 8.547749891885156 5.178631104757677 0 0 0
198 3 7.450731783684304 7.445327004532746 4.897976916545411 0 0 0
32 1 5.802027623654345 8.72928402752326 5.184478292775186 0 0 0
208 3 6.639692526475672 9.847381744745794 3.5546557816991173 0 0 0
183 3 9.858216923031591 7.694816755718676 6.923843443706046 0 0 0
189 3 9.248451967428931 8.460312102228269 3.856715946781331 0 0 0
240 3 11.685075861450391 10.351895714532624 3.7386825818819815 0 0 0
106 2 12.884435153611628 9.529605792044 2.30799699088436 0 0 0
218 3 12.912530000078533 7.177874555648499 2.632554202363961 0 0 0
45 1 11.472525624260776 6.957016572948175 3.956575393165764 0 0 0
252 3 11.672614624412203 8.538797742703558 5.757982120769692 0 0 0
236 3 13.629925843171991 9.088364434693286 3.9999238583421137 0 0 0
108 2 12.644011912995136 9.656237341633034 5.320636925212831 0 0 0
38 1 -0.8685079212020412 -0.7203951751908598 3.7300920344956543 1 0 0
146 3 2.4130935721408897 14.044345078949998 4.870482141747115 0 0 0
15 1 0.8564168651597006 12.330742319051149 6.008159521520804 0 0 0
162 3 -0.8216692781262414 13.270180647280656 6.672961460997498 0 0 0
255 3 0.3663185188760514 11.887517083964685 4.497821856679299 1 0 0
58 2 2.569591262333985 -0.6856961471088845 3.670091242527909 0 0 0
153 3 4.414353177425814 12.288395662422438 4.613694977609117 0 0 0
87 2 4.123783710257221 11.70505683098389 3.1485504764841883 0 0 0
2 1 5.277579410458634 13.909351555629392 5.1264741652872 0 -1 0
33 1 7.145161723983211 11.883059456676225 3.5324779420005648 0 0 0
257 3 9.558888362168073 13.150591471001707 3.8058424364970254 0 0 0
20 1 9.022345138598446 14.778142213380097 5.02289096052617 0 -1 0
201 3 7.346721308864032 13.027074957995227 5.307043635343843 0 0 0
51 1 10.823498488311236 11.769476359307633 4.462941786364891 0 0 0
96 2 12.488095672167173 -0.567461726464904 4.130072809910584 0 0 0
71 2 13.295562917821892 12.733011242198199 5.813320089080285 -1 0 0
268 3 12.819850382344026 13.802432669098453 4.6012534748440626 0 0 0
270 3 12.504624790508831 -0.11014497722345218 5.587027160083737 0 1 0
60 2 -0.02374737138010241 14.686388930398067 7.278511629108715 0 -1 0
77 2 2.726983204426391 14.882540027174965 6.341611930727457 0 -1 0
329 4 -0.6006559029837442 1.4878696771884656 3.2513422138134445 0 0 0
180 3 3.098689964654834 0.6610077275218584 6.003831351975516 0 0 0
121 3 -0.8478408730855154 1.1648090115042664 9.846730789603225 0 0 0
36 1 0.7932106176097857 1.825055203151822 9.587865444638712 0 1 0
338 4 12.705729864383054 0.21083072504890188 10.410482225695448 0 0 0
174 3 3.9148689944241486 2.3282047551493648 9.52701035178238 0 0 -1
116 3 5.207927840375524 0.842744268400929 10.657563750557026 0 0 0
176 3 7.024554688322922 0.5765175084488112 8.445196063865035 0 0 0
271 4 5.015330568383544 0.7932065312543539 9.50383968952549 0 1 0
332 4 6.310918008153011 1.016076975374547 12.925052331968715 0 0 0
78 2 7.605498589136564 1.3068195884803395 7.192776965533721 0 0 0
170 3 8.969597539794748 1.3545130173346047 8.383670313801597 0 0 0
229 3 10.02941182969228 0.8081089925966995 11.629245567771468 0 0 0
193 3 7.460016216597927 2.9269980074314867 6.703268300853859 0 0 0
23 1 8.73804263347721 2.9688437519881212 9.014152104902761 0 0 0
35 1 9.815651956226201 -0.3101380781157378 9.883716254700195 0 1 0
272 4 11.272973993164413 2.1436755365589883 7.427211671534776 0 1 0
315 4 12.656760206387887 1.089752024823428 9.370775526947995 -1 0 0
297 4 12.42611211699068 -0.4246462958051663 9.77365914570621 -1 0 0
351 4 -0.3418891183866749 0.41529737355039487 7.453968387700819 0 0 0
295 4 12.5077374088039 4.045758541639037 12.487434521323795 0 1 0
330 4 13.805210783959579 0.7289962962019361 7.874354534305821 -1 1 0
302 4 11.980426106826608 1.587254295390899 12.88479396464175 -1 1 0
304 4 14.143197056604514 1.5483049648991827 6.494411220167142 0 0 0
349 4 12.905885442583672 0.8329697998806751 10.71802564341367 0 0 0
311 4 13.063371120926776 0.813184827106451 7.8909282417577415 0 0 0
288 4 11.838476513385714 3.0447701373355023 5.323446589932792 -1 0 0
5 1 -0.3444894316385627 3.9943604478656836 7.838375499293662 0 0 0
124 3 1.594498505243672 3.385834382505487 8.376967418627823 0 0 0
287 4 0.9913675892707066 2.9548576779859386 7.336383330661189 0 0 0
140 3 14.803195939989134 3.6813385454087317 9.679072498923569 -1 0 0
195 3 0.1892974432325647 5.949396582466269 8.934575850725587 0 0 0
334 4 -0.07237715440404247 6.763314415245675 9.500952733789157 1 0 0
296 4 2.3389192510253074 4.890221460673505 7.356837587122449 0 0 0
279 4 5.072154609470238 4.063002029733798 9.537746758524728 0 0 0
84 2 6.190824822260782 4.492634360977432 6.952822958948582 0 0 0
284 4 4.315635926885185 4.780611158769682 9.911051319859741 0 0 0
188 3 7.423663309900528 5.284579772649171 6.215126031486078 0 0 0
273 4 4.945146530600402 1.793692834612116 10.558819898503609 0 1 0
322 4 5.374017758541523 4.186094758612549 8.354834531130306 1 0 0
125 3 3.146648629155343 4.573771769601883 9.730787636541638 0 0 0
308 4 4.325173683229692 3.2828945091285213 11.670305301497212 0 0 0
318 4 2.782152047637922 9.699746992187073 9.878834208477269 0 0 0
356 4 9.193338378163022 3.955392900089537 6.514533014015127 0 0 0
234 3 9.884348635266251 4.201402430621195 7.044612112720304 0 0 0
194 3 7.564942238142411 3.846219022688814 10.329507316546428 0 0 0
42 1 8.09669659347632 6.273861011434609 10.284613547412617 0 0 0
303 4 7.851914515127511 11.600856309948643 8.475738528358082 0 0 0
298 4 10.451559887321443 4.607014948969065 6.22625830244057 0 0 0
316 4 11.861759591908637 4.155739842816411 7.6694515885736845 0 0 0
245 3 12.50862069253972 5.267329227592951 10.56629508474819 0 0 0
47 1 12.832898083585656 7.478983271643207 6.5622071160279605 0 0 0
6 1 14.313499336647263 5.4517675497269975 10.029508437011467 -1 0 0
354 4 12.644732958096808 3.3345853026302104 9.603478651787494 -1 0 0
342 4 11.82944544489418 1.3498786063548716 9.3053703327856 -1 0 0
289 4 12.115656522573826 4.323513747571422 7.021371717755874 0 1 0
358 4 13.139533306625767 7.33481137204193 8.995714174184199 0 0 0
134 3 0.932547479019834 8.550258496616035 8.429237270135046 0 0 0
158 3 2.399805207700898 10.495459214008955 9.902801172326573 0 0 0
83 2 2.215596222981674 9.367239130314664 7.2012303873961105 0 0 0
313 4 0.056094145797773276 6.556667884441155 13.289171420388188 1 0 0
312 4 13.984654041956794 9.909518709536906 9.922537643573648 -1 0 0
275 4 0.9317650293917552 9.385134645076358 9.235075849909045 0 1 0
352 4 14.20568934011009 9.524906739998423 10.695111458937028 0 0 0
191 3 2.7124303633522797 7.788095266590295 10.43511546833163 0 0 0
129 3 3.6335825619136495 8.651067105472904 7.056894676915318 0 0 0
209 3 6.510759385850333 6.491546197417807 9.199878918076678 0 0 0
196 3 5.383905276405849 9.111479474849334 8.300773305342405 0 0 0
90 2 5.771676171820455 10.476954243670612 7.628776556257705 0 0 0
300 4 1.7328807755059237 8.080344266967652 8.82290388491734 0 0 0
306 4 6.789572323532725 6.158271872271027 8.314967746347433 0 0 0
29 1 10.71357715485426 6.523035134190351 8.928212173853927 0 0 0
248 3 8.90821243980183 9.824891000295986 9.182391577157013 0 0 0
206 3 7.595935619864882 11.042555319181385 7.195483985090316 0 0 0
326 4 11.95105493472078 9.471309737463548 8.41838830563942 0 0 0
263 3 8.907353864416732 10.882100131224794 5.314762730297951 0 0 0
290 4 8.888041044814457 10.242470855894767 6.0808222180800895 0 0 0
276 4 8.391369146200077 9.903793478456041 9.991288618678565 -1 0 0
359 4 8.885965039262675 11.745090439513845 10.231672624243178 0 -1 0
274 4 8.076304739900978 11.509294575806678 5.87730660044629 0 0 0
137 3 13.896884530266329 7.654919205408667 8.56637535550432 -1 0 0
212 3 11.726783234692391 8.65800849647801 9.01149943982722 0 0 0
250 3 14.056624378257517 9.599301982044915 6.599687062797965 0 0 0
307 4 13.279974734099442 6.609228743428341 7.8139055566043485 0 0 0
350 4 14.795604270676181 8.133496490165461 8.720217954924996 0 0 0
314 4 14.447757272765715 9.485425939374469 7.459250990860898 0 -1 0
122 3 1.5290599016546973 14.56826164981844 7.574881446419603 0 -1 0
128 3 1.863185327527296 11.235089462726243 7.568689128658743 0 0 0
155 3 1.8294926783163832 13.09317530558583 9.99508661638471 0 0 0
160 3 3.8482511624476228 13.795692216593228 6.916275459107978 0 0 0
72 2 2.845965199897798 11.734539364045279 9.1468644331218 0 0 0
14 1 3.765623899268574 11.859803237962613 6.422354608669522 0 0 0
152 3 4.27033187876673 11.767412609381221 8.533082641521736 0 0 0
89 2 6.411135671429527 14.572750388722904 9.021971236807047 0 0 0
147 3 6.374196056515509 13.262847069554024 7.831857681139834 0 0 0
216 3 4.771780757058554 14.531494552785444 9.330747615675268 0 0 0
17 1 3.1065654150870574 14.624967424168542 10.080064822609724 0 0 0
320 4 7.25668800191977 11.047009319420278 10.231915129554407 0 -1 0
301 4 9.393799441135528 12.789505729739048 7.759518699693341 0 0 0
214 3 7.851274193022579 14.667269776625544 10.590345701536346 0 0 0
265 3 8.67587452172339 12.57159953960336 8.320650678688336 0 0 0
107 2 7.6263294305537155 12.55700631913798 6.878378701187699 0 0 0
267 3 9.954982082595489 11.57218109537006 10.379936703828577 0 0 0
355 4 10.68138099881974 13.773020640846848 11.17261987598672 0 -1 0
266 3 12.829087098086562 11.251304567336032 5.5039532400437405 0 0 0
337 4 12.182186501377842 14.10343562664603 8.19468672479705 0 -1 0
260 3 12.549809509073375 12.824501000743261 7.3304666055827585 0 0 0
346 4 12.334331789140931 9.978761499541648 9.803412683136688 0 0 0
264 3 12.857882875754276 11.011528127465548 9.541264483261099 0 0 -1
18 1 11.686963925513085 12.670322249852086 9.515000520864856 -1 0 0
259 3 11.330265086379383 14.29212205647341 10.874501769088154 0 0 -1
328 4 14.286950101853815 14.23311084171169 8.96203765293778 0 0 0
175 3 3.036626861628105 0.8331843939916195 12.24888484476596 0 0 0
115 3 1.1730717941596267 2.3487594582359383 11.904213947310103 0 0 -1
55 2 1.6827671886810314 0.30762876820970675 11.906920540373413 0 0 -1
317 4 -0.593825267814932 2.360493592088645 13.67094141673642 1 0 0
321 4 14.162876993200616 0.8068526852196483 10.259636210677677 -1 0 0
1 1 3.8470260063700286 2.240468679279724 13.41584096004012 0 0 -1
305 4 6.427977270981842 2.3211791159462307 10.820209936808599 0 0 0
215 3 6.48925948658587 1.2257605479500286 11.935027504641099 0 1 0
85 2 4.79634877170323 -0.1910346588563011 12.246845744153731 0 1 -1
177 3 5.0285366085475545 0.5530089178550863 13.617060287591789 0 0 0
280 4 3.3665971331588986 2.9092374495651527 10.26115496181268 0 0 0
231 3 8.204308968063382 2.1741416768818578 13.357292140058014 0 0 0
91 2 9.647224259075763 0.9586758049546193 12.964932439567331 0 0 -1
54 1 8.074605670105518 2.344822911379177 11.420138846515531 0 1 0
333 4 9.77741737852885 4.072598696817839 12.2468786176836 0 0 0
281 4 7.88611626601287 1.2666330214866655 12.792583612402481 0 1 0
286 4 11.809965475553367 2.092848135611754 12.421500770137637 0 0 0
169 3 10.30788488266175 0.8131142102262394 -0.665144452419385 0 0 0
345 4 11.046045416832296 1.4840221337731356 10.64601167657323 -1 1 0
309 4 2.1110447788507165 2.573030775495305 -0.44645963103841824 0 0 1
357 4 12.077076140754146 2.037895773619195 7.188540813800312 -1 0 0
92 2 11.675162611821746 14.821507988627513 12.659821019924628 0 -1 -1
24 1 14.767810257862225 2.9716696738731816 11.633294565560933 -1 0 0
11 1 1.2216777903131408 4.4615584953343275 10.027236920812465 0 0 0
141 3 1.494204178089935 5.33701953129323 11.560318181101884 0 0 0
344 4 -0.3320541923205007 6.055898175995547 12.314757905802399 0 0 0
79 2 2.731103118198266 5.222557434649578 13.612353963154746 0 0 -1
25 1 5.26147008252677 5.843178445302373 -0.49312065036357217 0 0 0
348 4 3.1927053648969643 3.5048471090544515 9.66683775945865 0 0 0
285 4 1.3302617669234462 3.445704763712821 12.49847438249137 0 0 0
292 4 4.316472951896733 4.302110703095583 11.52196538724206 1 1 0
138 3 4.351993033352012 5.041791449005266 12.54635777176417 0 0 -1
277 4 8.479845932431742 4.74566559436118 11.653814615310743 0 0 0
192 3 8.569711128216019 5.146434863777138 12.521540597456829 0 0 -1
235 3 9.502051005432048 5.234679096843618 0.18692052659911917 0 0 0
123 3 11.538083446860039 2.085442653467763 10.03805154806178 -1 0 0
282 4 10.220108787227836 3.863610938418079 12.920235133266864 0 -1 0
293 4 7.542634846020961 6.1876450188849565 -0.14201229213494515 0 0 1
283 4 14.411445769891893 5.009591356594827 13.862255305828887 0 0 0
325 4 11.740042463031473 4.51758789409359 9.660312319510624 0 1 0
230 3 11.851591884573605 6.402068516097808 13.87457007336193 0 0 0
41 1 10.984009085029337 5.588560857520961 11.854202463646194 0 0 0
139 3 12.972741681552513 7.631225287758419 12.061906264189558 -1 0 0
340 4 3.357371271823112 8.274326868278546 12.810366911467433 1 0 0
61 2 1.4550712595234216 8.439645517401802 12.493860974757915 0 0 -1
241 3 0.8364070733454891 9.927748426724145 12.468643278223384 1 0 -1
30 1 4.620364598071314 7.475140402034723 10.414957001133313 0 0 0
159 3 2.9078096445097024 9.76318127983001 -0.19636365253798094 0 0 1
249 3 5.0392537721418 8.90629817331434 11.912038438156701 1 0 0
56 2 3.8557418231507503 9.644585679130458 13.15725404891772 0 -1 -1
151 3 7.8792504442738664 8.611282334044104 12.66222906346251 0 0 -1
339 4 8.825426270256779 9.289836256442024 12.986672285611892 0 -1 0
299 4 5.8337002317977245 9.172990164389219 12.129036108184057 0 0 0
310 4 8.62005051953487 9.008856919242703 9.433724062009697 0 0 0
341 4 8.491936973531807 5.941471764745655 12.899173771758383 -1 -1 0
247 3 9.709720362795116 7.848263673977783 10.731354871821303 0 0 0
353 4 9.118238451518245 6.463391138283822 13.983978133957843 0 0 0
211 3 9.590653555160614 10.188357546495633 12.408687478804362 0 0 0
291 4 8.963235051538796 8.124073205526498 11.906282777389325 -1 0 0
347 4 8.997178397157507 10.38341546995179 11.665931139434903 0 0 0
103 2 10.706402032915166 10.047633589039867 -0.3914556144715984 0 0 0
278 4 -0.7697841484837911 8.333847800779042 12.201229045116957 1 0 0
360 4 14.836073066754093 7.956010369927824 11.057890942742198 0 -1 0
335 4 12.806182927452683 9.281270873990904 13.186078552875873 0 0 0
251 3 11.795788453763578 9.386206789667064 13.6915632246253 0 0 0
48 1 11.288521633990687 8.700145213334173 11.155499502007299 0 0 0
336 4 -0.2327677103878435 8.629870531609622 11.371271007094741 0 0 0
104 2 14.161925098659225 6.5431969930127565 13.472361650190336 0 0 -1
269 3 -0.7793335942072204 11.071464311422929 -0.2578171122292414 1 0 1
323 4 -0.15783452712090473 -0.4917345100731843 11.382057095977625 1 0 0
12 1 0.3702154282022587 12.222598482160123 12.01022844938274 0 0 0
343 4 -0.6586343202775558 14.333190100151139 8.648137481822573 0 0 0
157 3 4.045056331392881 11.182235741514852 12.813370596298236 0 0 0
73 2 4.236631438938238 12.758810856339737 13.090994862178965 0 -1 -1
156 3 -0.3632396531898654 13.782209254094868 14.091390641653836 0 0 -1
294 4 13.900045620297844 14.354662353776028 12.339656699745088 -1 0 0
179 3 6.068793573965646 11.38010745249398 13.857589130305032 0 -1 0
324 4 6.601437593189313 12.436240897299689 13.469420797220607 0 -1 0
210 3 5.926134934858114 14.435430115310625 12.120657389846908 0 0 -1
213 3 3.9364807796214016 14.127002297924161 12.01762586141488 0 0 0
166 3 7.794544097593018 12.797163730437584 13.013081990356264 0 -1 -1
327 4 12.025089491930787 13.266732605789018 14.079384069756244 -1 -1 0
74 2 7.483553052565874 14.264942341936074 12.225301956233727 0 -1 -1
331 4 6.283833265747816 11.11272702243282 11.515743326308149 0 0 0
197 3 6.273438332591741 11.414634808748549 10.486187522763736 0 0 0
205 3 8.349856380857592 -0.744949171882094 13.344291397467346 0 1 -1
109 3 14.121175958963663 11.568947413043485 12.4479883776588 -1 -1 -1
161 3 10.788352898549016 11.315154096617976 13.727927077659754 0 0 0
53 1 11.5665631760412 11.690718321846905 11.591049646956535 0 0 0
228 3 10.663059259704179 13.61374039064058 13.597165988633263 0 -1 -1
67 2 14.359034634602631 12.464567122141274 -0.6815273997618777 -1 0 0

Velocities

114 -2.3301985967272127 27.743401426225297 12.117261847599844
57 27.361005132325715 16.02833273625578 11.95748733583189
163 3.658921018542681 22.381746287842308 -8.817633213214693
226 14.168019564351923 -7.459885254015069 -12.783649831489818
223 -26.367659404381843 -2.398940854694187 17.199662104800485
118 -8.427818833105919 -7.969129797679033 -24.618626942219855
75 15.32915210193805 -17.36705852698128 0.1982680622140091
167 -10.834350940515721 13.937862240799094 5.564617227203114
19 -15.814410874086082 3.5472020016955192 5.093385229523941
34 -17.260028488583902 4.542654454921714 7.473671115095419
172 -16.096635608492857 -17.213190316554005 2.270143891016622
171 -20.34361583507538 8.71154873015369 9.651710196031994
93 -15.068056923542317 1.8986709062529012 22.052453339087712
221 -16.12451541401634 11.93658004593587 35.59791685328403
40 2.758662098656377 -20.513085705752154 -11.430094428794423
217 -8.694908229405605 6.981617798995737 -0.14273216332989583
37 3.116564290059362 -15.788333029650461 -5.647178154260972
220 10.473924739285563 5.701935849436434 -16.352347940108142
319 0.22708673355362996 -24.45579749629443 -36.6465392259494
117 -3.9236653757405895 -1.016736902023351 -23.55493564078838
130 17.02995736937842 11.23542882521902 11.331963184368192
64 -2.595346010033293 -6.2791510617650985 25.685135651334996
233 1.3525769534694208 -8.638445081395833 21.427342050329568
62 8.649731347952079 4.781569304190146 -12.50507589889999
9 22.602047357739135 -5.3781915530321704 -4.0978820713038955
168 23.86679716601405 -1.4244807554959438 -10.44541094986574
136 -14.049300217345422 26.47795956785056 -37.69560202365042
82 0.4516310393029504 -19.626244754301094 -8.056540394578821
22 12.901577189501982 -9.027169364256658 9.061955230009124
184 0.39332314609854874 -6.212211223303887 -11.16919471817836
187 -9.663908325921446 20.19539404855382 -0.11733648280315755
99 -16.79760181281236 7.336489915101228 -6.1671811084112225
239 2.2979356317746835 -19.07467923624359 -3.7306109716173883
222 10.640154051221803 16.129322267223994 -10.91631643701882
80 19.950360323805935 4.25220059401838 -1.0298721870718577
225 2.060524267091198 19.199441230061257 -0.3545940208944535
100 3.1401302933908375 -5.6634152611667 4.600115061274295
244 24.727989360334952 -9.387669959219263 -15.624813484003306
98 -20.267205639399037 -0.4341037535702637 -12.994531072805161
120 2.180312042133882 -43.122635411719244 -30.199378282023314
7 2.3740417097345863 -6.415826184561094 2.8284588340042935
132 6.509158753858563 -10.085039356995011 -11.574593781224383
135 8.491590272182686 -1.3684629969438338 35.98000316408858
133 -1.7201376950000724 -24.882169581044085 -18.103471190578595
70 -20.879368234140937 -2.007495989473616 -4.72219378121815
148 5.6164032150398295 8.500969265115515 2.2285878723789914
68 18.310425562754755 -6.591127856113285 14.689017242877425
127 -20.801646897352725 -34.887315407775205 -5.851943550386277
149 -13.58818340835098 6.506229903655049 -11.980556139309181
81 12.154158393699305 -1.428921316841229 -2.274424309115575
181 8.127085421660427 6.949010264615966 8.758158018662503
186 6.536341208841623 23.013179122339178 -20.991363843633852
86 11.176502149825899 0.2744663063427934 -12.258479085655422
202 -13.216333878170525 7.32291138194734 -4.266954428099471
46 -7.384441757090391 -11.077622493421744 -11.104066917867748
246 -7.063785208067175 -12.204979127912377 10.021142205196421
253 -11.45075943179892 -17.74398652205653 -4.837379858126856
97 -11.254109713690585 8.239754101766694 24.320334599823653
43 -11.976615950439392 -3.6385810113407655 14.655725193717842
10 10.649738168924513 -1.9903754579182722 -10.139864114244798
256 15.127781425434648 -20.722989460562683 -10.964638371721456
262 -28.81387925509423 4.210721524912219 23.211638971276578
238 12.414841232979322 -23.763854596800538 -11.035643264369883
143 -12.488552331615095 -5.724139441897027 -14.090501049129905
13 -12.311846925759298 5.2037503118291575 -1.8209421787892295
69 -21.971933244569488 0.20932478994091583 12.302335699411078
150 -16.432009383183654 1.2126638832274483 1.5436319889200738
112 8.360595299824784 13.514708036824423 -13.357834552224253
28 -13.16811986128934 -8.961184667265956 2.133919466052791
203 0.8922935484727847 8.331080475787354 -3.617344712420445
199 -23.785767255815326 8.4234952973345 6.7103603551665465
204 -2.977136110776478 -13.907188494272157 -16.80485622530395
76 -14.179603105731184 -3.1089865552748606 -0.5430951186747152
52 14.579797606220465 -15.7818612724982 -17.259778206376485
31 33.66987532822308 -11.793955588628553 -12.58403704801771
207 10.872915420350635 -7.368844380468336 -7.137451091862381
105 -4.38848627011911 -15.730455085336104 11.974778616568104
258 25.816311132649844 2.408083937185482 31.133983755627433
16 -3.4137936915367404 5.220674303617716 -7.862864780227858
145 5.521307973174756 12.453872833941379 -8.312620956046066
94 -11.289884552111952 18.363383856143717 -12.98113906167708
49 19.347433364855572 -10.499089882574072 -6.283207582800971
261 1.7599324938480179 12.829375935483569 23.111764358997213
113 1.8459151218901286 -8.618379847036918 -17.018058346364352
44 -9.096842890833797 12.995409644162905 4.767024710831818
21 -9.385060998285537 -9.804166535933202 -12.88995349818464
3 8.116456137125583 -4.977659760815927 -2.9908081977226963
111 7.3509763735616955 6.280478383575205 -17.352892854657075