LAMMPS data file via write_data, version 2 Aug 2023, timestep = 5200, units = metal

360 atoms
4 atom types

0.5672140059506772 13.442785994049352 xlo xhi
0.5672140059506772 13.442785994049352 ylo yhi
0.537658957817615 12.742341042182304 zlo zhi

Masses

1 24.305
2 28.0855
3 15.9994
4 4.002602

Atoms # atomic

344 4 2.5675782352990653 9.102746328958656 4.3896824701767185 -1 4 2
130 3 3.3772156493649064 2.097101827774037 5.302323118981533 -1 0 -1
82 2 3.4228929435703037 1.97862337951999 2.6780425820888527 1 -1 1
222 3 2.5101600488442175 13.11919358135314 12.439687080440386 2 -2 -1
125 3 6.170193450757624 3.6247750504014458 1.725717098581636 0 0 0
123 3 12.676833979384092 0.8309098325113684 12.043243463736111 -1 -1 -1
76 2 2.4162510781291626 2.7913990270390707 1.8461455175646146 0 1 1
124 3 3.175288217541685 2.536061341364592 4.890562876051732 0 0 1
237 3 12.508638008418284 3.1720957186050582 0.5746457900586052 -1 1 -2
180 3 4.471497835894628 4.629652150364613 2.432842456344338 0 0 0
295 4 1.6527334344736258 7.322787372233767 3.660339532451017 1 3 0
23 1 3.666468773751475 12.935776358858792 2.1459115220158687 0 -1 1
165 3 13.08711742728006 3.0582102890333704 2.6100138177769243 -1 0 0
104 2 3.1388301091368875 13.186666145730083 5.690618895401928 1 0 1
357 4 12.400871349819816 6.329155268993415 9.779376451302014 -1 0 0
28 1 12.856066740276738 3.2616657917878893 5.4599932665517175 1 2 1
56 2 7.4806080885879 2.755280173767082 1.035343354375148 0 0 0
264 3 7.207722667057583 2.19804280746693 2.824026523256753 0 1 -1
346 4 12.501408212996683 1.4220918165221959 2.547112475981294 1 3 1
333 4 4.6994117051131346 1.9793042250154154 9.608586076934944 -4 1 -2
262 3 6.651035639027805 6.520881562743196 1.3455150821582034 0 2 -1
166 3 9.528268086842523 4.571032946820959 12.194638626876802 0 0 -2
188 3 10.91359490921641 5.200999831090795 6.2205830212091575 0 2 0
47 1 7.731177505314685 1.6877903161445083 5.260521492430065 1 2 0
224 3 5.345787875254946 3.5347271831590237 2.1722228075261505 0 1 0
220 3 6.280205496312428 4.02663867983922 2.7725201335833436 0 0 -1
8 1 8.79474239128903 3.3591384679376812 7.568613138294922 1 1 3
40 1 8.046202352636303 1.2364535960826637 1.8743052280148345 0 1 3
25 1 7.578297691518599 4.936288413513233 2.691824709554908 1 1 1
136 3 6.014918324746701 3.1003858917289975 0.5443646267416311 -1 0 -1
216 3 5.615241876424865 11.66542279790361 0.7208271076877123 0 -1 0
175 3 10.050212249267346 10.839227650813154 12.29044391793817 1 -3 -2
127 3 5.608004556334413 4.525213938425891 12.442275991474148 0 1 -4
218 3 6.207301589491828 4.177191859351673 1.2009209123382703 0 0 0
20 1 5.0844049884221665 1.0239166502055448 2.6803367300621215 0 0 -1
251 3 6.122207670153078 12.127779561217327 0.8703141901615312 0 -1 0
179 3 7.51668576071929 4.2482413638484795 1.4087657435119476 0 0 1
79 2 4.753639703162666 2.3885450038125073 11.086191891840667 0 0 -1
97 2 9.818520302438102 2.770391439847575 5.018146091057546 0 0 0
16 1 10.984954818629237 4.587436973458208 2.2151709985803594 -1 1 1
168 3 11.761085108994294 0.9403127484982421 5.623145675016055 0 -1 0
352 4 1.0779701388010035 5.4172534889156685 7.735311497225535 1 1 3
235 3 9.511646362441613 0.7627446565411758 1.0194871847786413 0 0 -1
339 4 11.745795738038819 5.002224698856715 3.422823012811077 0 2 2
169 3 11.927198442852198 4.1332424301254775 11.39406575077771 0 1 -3
137 3 10.4349184510869 6.305805620254834 10.637040092786364 0 1 -2
355 4 11.360393821280223 13.175224659772343 9.70405903577758 -3 -1 2
272 4 8.39609851905933 11.146694949789165 2.3048622908993366 -1 -1 3
50 1 1.9526177067670205 6.680717172106508 2.268028714760476 0 0 -1
33 1 3.175903863494197 5.446454524045234 2.1766037550261146 0 1 0
58 2 3.0437140239392106 8.94212793524266 3.96316796417421 -1 -1 1
142 3 3.0967870010658034 6.826883214628997 3.04977110299314 0 1 0
221 3 4.110418577005837 8.643212338089729 3.9967799208633306 0 -1 0
111 3 3.5313913071555896 7.840439229573312 11.755966948237237 0 0 -1
78 2 1.4459004044076036 5.220956878773463 12.688983399324886 1 -1 -1
229 3 0.6486065962746417 9.197823388535664 3.8132419650801106 0 -1 0
265 3 6.255703384003086 11.461380214826285 2.7842334869004084 0 1 0
152 3 4.5562785038554825 6.331748920820643 1.5491780585263795 0 0 0
109 3 13.043407583902741 7.554437669226753 2.227040390871257 -2 -1 0
107 2 1.303046962095726 4.257984246354114 1.9622629838580479 0 -1 0
338 4 9.298747955932651 6.992726909625716 2.274638689613581 6 0 -2
134 3 2.3110810903155548 8.984638459770334 4.304754889998049 -1 -1 0
253 3 2.472489111998888 5.60810372307686 5.2644219582665785 0 0 0
38 1 11.862050467028425 8.686997356723765 2.57532259249494 0 0 0
155 3 5.599602942199172 4.954134153691481 4.312303337377445 0 0 0
192 3 9.463606281684655 5.497974181771862 12.58215137718609 0 -1 -2
270 3 3.416119833887117 7.5153428748332 2.8896138026863385 1 0 -1
217 3 8.483153264799618 6.039811743314021 0.5794616168876705 -1 -1 0
116 3 7.921785556621353 5.897631098759058 0.6775556887326858 -1 -1 0
246 3 5.080776398430722 8.797221631967897 4.884801491886918 -1 2 0
178 3 10.66620900951714 3.772349261486703 1.1331465700820398 0 -1 0
190 3 5.337564426406914 4.7041173461176236 3.0097282745242038 0 0 -1
174 3 5.113001048949465 6.828248475535913 12.573411431543857 0 0 -2
202 3 6.187593606929358 5.201060299524616 2.3010155963187153 0 0 -1
32 1 5.627223881829926 7.660753882119673 1.8502809585953814 -1 1 2
268 3 6.201750063680846 5.820273675580848 2.6368817639800177 0 0 0
176 3 4.84292461823395 8.730793576068699 2.998147608728524 -1 0 1
187 3 8.119217541168942 6.177386787092784 3.2045856691526007 1 0 0
128 3 5.945024266082523 4.721960532457377 0.7994038948711328 -1 0 0
62 2 8.49276741363048 6.39899604412886 1.2645255248091363 -1 0 0
96 2 11.342271142840016 7.427934815708905 12.256982742410692 1 -1 -2
45 1 9.895993772311396 7.023997251946583 1.866663087625957 2 0 1
312 4 7.868271146960289 3.6478934817055984 1.826877492626508 -1 0 0
64 2 11.771055191159814 6.65717478791131 2.2316681316274405 -1 0 0
332 4 7.073006262451556 6.365739785570268 1.1956784995404703 -2 0 2
27 1 0.9407561047263134 3.048103053657069 3.1719191746064337 0 2 0
43 1 0.9746568385693539 6.194619999480079 3.861964288890228 1 0 0
340 4 10.027057930018579 11.4939991467072 6.08993179651577 -1 3 0
164 3 10.468727632556693 6.362374850844146 7.835135427509788 -1 0 1
37 1 11.547717196716583 6.747088381713768 2.9285211909222677 -1 0 0
291 4 1.4812472822965226 6.946095813389625 3.6435228782539846 0 0 3
69 2 10.307293912800393 7.625811666145593 4.495461163073485 -1 0 0
63 2 13.00980332347968 6.519213398776912 1.8686320446899078 0 0 1
129 3 10.693291354253635 7.598728497318778 10.465221584435955 -1 -3 -2
84 2 0.9798576796498704 12.269544375375663 1.9627943275376212 2 0 0
193 3 10.636854413022558 0.9408910758004565 1.5584359685990004 -3 1 0
148 3 4.42373198890206 9.73859323968497 4.6757349903758705 0 -2 0
323 4 3.1510868998470642 10.254255463278213 1.5473035359332692 2 0 2
186 3 4.388567134998297 10.19332270909424 12.07221311855131 0 0 -1
185 3 2.184551725469377 11.532711064842982 12.623097449865096 -1 -1 -2
274 4 2.333587051702769 11.015033302559534 8.379115098466677 0 1 5
289 4 2.9668290476472565 8.860717257906249 6.933944052653841 -1 -1 5
254 3 3.2662930391540836 12.55077777012227 3.1321595908534996 1 0 -1
154 3 2.1511008905167497 9.200416185388683 3.2741456952221824 0 -1 -1
131 3 0.9880246949434353 1.2813158754309573 1.491709767423537 0 0 0
31 1 3.3127328041257127 0.8386734720176017 3.720061164259285 1 1 0
233 3 4.4009980720965505 12.480168794556963 4.749217859035886 1 -1 0
71 2 2.076832166692665 11.66209687383338 3.0650311327208666 0 0 1
223 3 4.774232187770531 13.335215745909526 4.636539524518305 1 -2 0
350 4 5.802111190309539 1.114636042270872 6.692229590812594 2 2 0
336 4 8.50753350379959 10.352385469734678 7.675192197109867 0 -3 5
86 2 6.723591573127852 12.439551191596287 5.411080799287628 0 0 0
298 4 12.737682674855666 10.595771955699472 11.945910760577068 3 2 0
151 3 7.3326744857839925 10.979525989097926 3.2265592609585867 0 -1 -1
98 2 5.977741445124929 10.760739996833319 4.036268236212489 1 -1 2
120 3 7.1109845793972575 7.288680920876517 1.6736559741578725 -1 -2 -1
10 1 2.4785899334880015 11.876060335907397 9.762364473664956 -1 0 -1
307 4 9.309008956589633 2.061676295542168 2.7176426367452167 0 3 -3
170 3 7.10146415259687 13.362675132859504 2.8818484298758698 0 -2 -1
49 1 6.310826017202883 13.290796669143461 3.564919925708083 0 2 0
70 2 6.662833071037277 13.167735327100676 1.0595338071602902 -1 0 0
349 4 6.193881725854585 10.60601582847012 4.890153053598503 0 -2 4
273 4 7.476979199286164 10.170266264232268 1.5489041963867336 -4 0 4
219 3 11.887060993356389 10.18332948081354 11.209109524272321 0 -2 -2
191 3 13.43477121684236 10.484190377227943 3.7965966981018715 0 -1 0
294 4 11.976775252234301 9.402438501523541 4.385739871434703 -1 3 0
242 3 12.578225138252037 8.03094093008158 2.3017218399489705 -1 0 -1
194 3 10.124833612194571 11.365798490134317 12.407530264676865 0 -1 -1
250 3 13.318007522419855 10.45550634192977 3.5940552240157357 0 -1 0
117 3 8.253750999781172 9.597155320854515 12.70477462286933 -1 -2 -3
167 3 3.1890522353743918 12.404696635308941 11.054859058066388 1 0 -1
145 3 9.19797682267982 11.245289582302142 2.7522028775673477 0 0 -3
302 4 11.619752246605067 1.6433380848552919 5.292366752023109 -1 1 2
39 1 12.463374354411094 10.325107846947663 1.910222471641262 -1 -1 1
213 3 9.964830087566195 11.283092629508758 11.04387786755565 -1 -1 -2
121 3 11.65045926675986 9.489863332996304 2.7757588325200424 -2 -1 -2
195 3 8.474567559540617 11.29210369171788 3.4740738236905075 -1 1 0
141 3 11.92132080038014 1.1319081413823815 1.5945708568290768 0 1 -1
359 4 11.766908101081047 4.816232517753914 9.475126132680334 -1 0 0
322 4 1.979210795575348 0.8436757714409229 4.640812978476259 2 3 0
327 4 3.7857424389938714 2.746211804440862 10.9708276731718 3 4 0
157 3 3.878451971337623 2.180751356869571 6.441150897795327 0 0 -1
146 3 2.8565084767872087 3.1666087277389328 5.2829039791248205 0 0 -1
60 2 1.0256819284808696 2.458806081720959 7.56716237773603 0 0 0
236 3 5.132812611574889 12.891215018224404 6.76685917884757 1 -1 -1
122 3 3.0171925288795367 3.6932649991638034 7.615698059039468 0 -1 0
252 3 7.6002953504537185 0.8048485751522603 5.706981318523024 1 1 0
315 4 10.596832735103668 8.213444407588632 8.578643030325914 -2 2 3
61 2 7.495575377010377 1.9487984495536632 7.052939647916746 -1 0 1
275 4 9.751288520978285 6.130633194052764 9.35455212953418 1 -2 1
140 3 6.665080283734576 1.243894985565124 8.038411979571364 -1 1 1
108 2 8.305307566482636 1.1970985057515362 8.627764442170694 1 1 0
83 2 6.073017060916493 2.691824991640563 8.443631551321364 -1 1 0
283 4 6.080473273166133 2.0756560996860456 6.662767716313283 0 -1 2
90 2 8.787130977393204 1.582394667864987 4.578177857519275 0 0 1
282 4 9.342962866923717 9.550805860272597 12.154088939871226 1 4 4
328 4 7.305296902918089 4.0337086994605675 5.5934842068104995 -1 2 4
227 3 9.352428368771744 2.112661625433345 7.331444373147968 -1 -1 -1
92 2 13.184710935576803 0.7809149076043371 8.294453329548325 0 -1 0
239 3 10.604880419536851 2.3146653702657427 8.283268533007913 -1 0 0
199 3 9.301943258915525 12.747785850160344 6.168408876983414 -1 -2 -1
341 4 1.010470863930673 12.665020515665027 6.670455630342545 1 -1 1
173 3 12.774248778823225 2.6435147006288555 7.4232557357949185 0 1 0
36 1 12.444869650548057 3.0359272335750163 8.852599636960242 0 1 0
54 1 1.2456278962048541 10.472451821430184 8.772288249081313 -1 1 1
68 2 0.9603296355745824 6.78132901002648 6.790835130341112 -2 1 1
89 2 1.2579947313418491 8.143169335728714 10.603989661157073 -1 1 2
326 4 13.135376826961078 9.04961469849372 4.337318414265548 0 1 2
335 4 5.359683844248993 8.946925425532047 10.851646376110324 1 2 1
14 1 13.156894837025082 8.444778359580365 8.064594610513717 -2 0 1
319 4 9.9342821964552 4.769284676888708 10.101948161495532 3 -1 2
75 2 7.962784362704463 4.407809732830346 6.849978483643375 -1 0 1
280 4 8.103099173624043 6.998816244391122 7.577473514805963 1 1 0
24 1 7.260148787469003 4.523514621930264 9.889997491611854 0 0 1
26 1 7.211755752806754 4.875876582020079 8.440706947303509 0 -1 1
278 4 3.1730756983657757 9.885114083298788 5.454991907661702 0 2 0
149 3 10.595658416811485 7.098320019317464 7.193207854843905 0 -1 -2
286 4 5.338145467602545 6.202562347890271 5.291970715945506 0 -3 2
51 1 10.842099893955385 5.413845409019584 3.8271098169171234 0 1 0
88 2 8.55344918526227 8.844770586433 9.543012195321186 0 0 1
300 4 7.013141374898371 10.26667751332008 7.389854819920491 2 3 1
30 1 7.480354137675994 6.331566345920179 12.631489381533633 0 2 1
55 2 3.027161774018468 6.25598492577649 6.570723840954444 -2 -2 1
12 1 9.447812067774343 4.671873743423685 5.992707944695788 0 0 0
290 4 9.581528747490154 8.376567262130772 6.826820227240957 2 1 2
230 3 10.85557507908847 6.97014921043073 7.423326664672876 0 -3 0
95 2 11.061944615531267 7.199920071688387 9.507901815298432 -1 -2 0
249 3 10.29217259770532 7.222694152631536 7.2468807863488784 -3 0 -2
133 3 4.322839569006724 4.346440716425937 4.687526138811813 -2 -1 -2
356 4 10.624675504225635 1.8918383624246424 6.968975945547286 0 -2 0
345 4 6.174088125604708 6.888296348280776 3.0517975761783886 -4 3 -1
304 4 1.5736309856835526 5.330858144107044 9.869575621157082 -1 -2 1
337 4 12.944073117194968 5.425542519529755 6.225743564949692 0 -2 -2
44 1 2.6703833995454014 6.741662857252619 4.240586136116637 2 1 0
118 3 10.925445280282759 5.252126562227506 5.354274103175556 -1 -1 0
353 4 9.593339029190751 5.8812846446970815 5.366780448522044 -2 1 -2
113 3 11.231869818553477 8.010132542025325 4.357259265114273 0 1 -1
132 3 9.698440578719843 6.6287933750940224 7.8791830866803325 -2 0 0
143 3 10.937296491365498 8.560278815799736 4.918019586939122 -1 0 0
46 1 12.864788757293041 8.118131763349382 7.4041769437234475 1 -1 -1
201 3 6.957642762934399 5.657429577591761 4.754663553912803 -1 1 0
119 3 12.074581509750686 8.601766500877734 6.403430036877122 -1 -1 -2
203 3 3.039075475804059 1.1559878638449526 4.735485714918089 0 2 -1
311 4 1.3842881401406926 8.75480935581097 7.220767649727214 0 -3 2
161 3 0.9770716529404082 10.735660362233723 6.607631051727909 0 0 0
163 3 2.357137556516289 10.4918725039246 8.925755330046684 0 -1 -1
197 3 13.018236697455933 6.992254133141157 9.161147232973384 -2 -2 -1
231 3 5.446981371055361 10.306230374183222 6.1150656472976275 0 -1 1
225 3 3.5964604749181555 11.650763903569278 4.239617295417391 1 -1 -1
309 4 0.6332995483628474 7.3214870501453335 6.210717926735719 -3 -2 2
99 2 13.380312405696444 9.531475412250416 7.049250150623101 -1 0 0
292 4 1.0275594331707094 9.688556651236102 8.156325881014958 0 -1 2
74 2 2.488985144920034 1.534075861307224 7.369354854797709 2 0 0
77 2 4.024793090987593 11.294724237457931 7.427586862778671 0 -1 0
316 4 4.744783550386289 13.409206429119841 5.848575616720247 1 -1 4
284 4 5.048394744482036 12.510554400113339 7.947434415768052 1 -1 0
212 3 3.079736375941589 9.491272057868972 6.47382618093932 1 -1 1
182 3 5.056236058417928 1.1784420455996116 7.593988541514851 -1 1 -1
234 3 6.410397964452005 0.9225790625077486 7.519056492784532 -1 0 0
106 2 8.9598613972877 11.144569107692657 8.828661672000496 1 0 0
263 3 10.507232145222218 2.7522291844664495 6.347250122826659 2 1 0
3 1 6.626107529607309 11.869535756858443 9.42061776302653 -1 2 1
241 3 3.872085977065041 1.0132208497472024 3.570777511149722 0 1 -1
320 4 11.65899002569246 8.414030061033827 8.014883304893164 3 1 3
206 3 11.71698013039315 1.6118592746018818 2.2880595886723096 0 1 -1
94 2 5.964174429276927 12.396884260987637 3.455471225101493 0 0 0
310 4 9.300341127001662 11.012606245583779 4.857607556792515 3 0 1
308 4 4.55056998763766 8.028517491737535 10.627090147728829 1 -2 3
210 3 4.373039671591428 1.0004454598967216 9.514561783217914 -1 2 -2
52 1 3.495208143001328 7.121567629319399 6.116644153582733 -1 0 -1
279 4 4.436606734981215 2.949002496059149 3.1103994479822483 1 -1 -3
204 3 10.4973553730741 8.978165812050513 8.170938781453732 -1 -1 -1
276 4 12.273385708899163 8.859135105694229 2.739601998260668 0 -1 -1
11 1 11.353106079952976 11.461462579649869 4.998858451161376 -1 -1 0
317 4 0.8652781663207575 12.410181946678254 1.83722155766984 2 -3 0
15 1 12.986334686892967 11.31715069613118 4.565515411696486 0 0 0
181 3 9.566463331780898 10.494692639886217 5.408714954611911 0 -1 0
18 1 8.200886793419848 8.693231785060522 6.234057959387824 -1 0 0
205 3 8.85420676991345 10.115233506896349 8.383520562599472 -1 1 0
211 3 8.200845229234734 8.122957820777653 2.8113114760824027 -2 -1 0
255 3 12.674240444943898 9.547279337977638 6.753027487846903 0 -1 -1
85 2 10.196318116851355 0.8528411198345524 6.52867350180044 -1 1 -1
156 3 10.250181261533069 10.839485568268447 6.789779163376616 -1 0 -3
266 3 10.425873138603915 11.658222689633895 5.966324120797165 0 0 0
209 3 11.1809376039031 9.39593078176177 6.431074237072713 -1 -1 0
34 1 9.838705472959845 1.7151855655552124 10.016119971212085 -1 1 0
271 4 9.725556100400318 11.463935254791323 8.54314148142132 2 4 0
59 2 1.9807711988373022 4.992551285590345 11.255796239092078 1 0 -2
66 2 3.0440107932995217 3.8407088596531276 11.309597009439575 -1 0 2
257 3 3.0375351313737413 2.6663350418862057 12.646184314255933 1 1 -2
7 1 4.103740794239726 4.323080463114607 12.462837708582487 2 0 1
41 1 4.396517185540771 12.589171959713667 2.323090352638701 0 -1 1
81 2 4.337620827795576 1.642121366182228 11.589646901560354 0 2 1
4 1 6.553627378753452 5.216319100882229 10.497562557030854 1 1 -1
277 4 2.0901279910777246 3.4717949689829632 7.352943649253796 0 1 1
162 3 1.624426582980787 2.2764663860271406 8.362265585937607 -1 0 -1
153 3 13.104516415693436 2.7128793194197938 11.833153226465885 0 0 -1
1 1 4.029056200323111 4.084453807167997 12.248440224846433 0 1 -1
256 3 6.662358811965915 6.098708192510481 7.433745294193733 1 1 -1
330 4 7.321796418518429 7.01993664847991 2.7123009187762603 3 -1 0
247 3 13.3851959741719 3.6092484404256977 9.527033739386592 0 0 -1
348 4 5.207725310533068 2.6885844499418776 9.943882573196493 0 2 -2
159 3 4.448341389413508 2.3288090546806464 8.979037720197816 -1 1 -1
318 4 11.674078856244677 5.260771479323672 12.395468828885132 1 -2 -2
329 4 10.346939243965618 4.553234621891164 6.345197861241691 5 3 0
100 2 7.048082297319324 5.398328934947789 10.895408571685241 0 1 -1
6 1 6.311085272909401 0.9833899755690025 12.137835454289448 0 0 0
293 4 9.462927429363027 1.5340075597907945 8.91527929485536 2 3 2
198 3 6.93159057264527 2.281213174380934 2.9716133496906636 0 0 1
110 3 5.959994218464199 13.141592538412148 9.247564534814398 1 -1 -2
115 3 6.159618577556457 2.232616921109042 6.671066627629495 0 0 -2
258 3 10.433234533688392 4.234884439758449 12.293804857176053 1 0 -2
5 1 9.180855521201135 1.2392687000198586 8.338570015775588 0 0 -1
287 4 1.5654613684159244 6.431017197371528 8.523641545492188 0 -1 2
358 4 5.203522661607932 3.499045784768992 11.174508679878553 -4 -3 3
22 1 12.287628966727954 2.542032945649023 9.204650629945952 1 1 -1
306 4 3.030357272562683 3.4650408533944397 10.681424767749057 4 1 1
245 3 8.363419464707395 1.6203884712580006 9.551367504910719 -1 2 0
214 3 10.372458025476377 4.474808774135308 9.940307904589627 0 1 -1
334 4 2.4953999975518153 3.775139500400673 4.16575125164414 1 2 1
244 3 2.8486967716215315 13.088780144288343 8.3442962251692 1 -2 0
331 4 1.3038174553542572 1.5684820442050837 11.7089006164103 1 1 0
347 4 4.138472514873946 2.4061640381321796 6.329920782951088 3 1 0
215 3 11.386121824692832 1.7668347688016235 12.402016255251706 0 0 0
126 3 11.409096780521867 3.1972602246451483 9.408617599382893 0 0 -2
325 4 10.508637705636179 10.834833074202859 11.575494709617615 1 -1 2
72 2 12.272737297309785 5.9904826062080065 10.973257718741053 -2 1 0
138 3 13.015447131810085 6.100516159393691 10.341736188238517 0 -1 -1
101 2 4.99670314583299 5.446631517187398 1.9502529166945402 1 1 1
351 4 2.188841259950129 8.817633539461344 2.8303230825206307 -1 4 1
207 3 6.196668255207775 8.002362208577718 12.008649062201368 2 -1 -1
267 3 0.9152327573677341 5.656842303864946 8.137770551576818 1 1 0
238 3 2.5579813578955086 9.544650398963174 11.798167828271747 1 1 -2
171 3 1.1959820781228134 5.797303307134607 10.97410144489799 1 -1 -2
299 4 12.440549592175202 6.172544755395763 7.700155440652854 -2 1 -2
243 3 13.208211211189486 5.590469405069948 8.621593299041077 0 0 -1
354 4 4.1746195884396275 2.4656226157566303 3.045681898332943 0 -3 2
196 3 6.821419980190828 2.894008766367367 11.121638941694847 1 1 0
57 2 5.758042770644567 6.558169468760288 11.956912205361675 1 0 2
240 3 9.319028577779903 10.65467874210249 11.361658870747124 0 0 -1
342 4 7.704457028544062 1.5555508713017452 10.992979162309219 0 -1 -1
232 3 9.955256688122077 7.967738195772639 9.758146354903559 1 -1 -1
93 2 7.238469855909059 6.829509950083031 1.3776642880586691 1 0 0
42 1 8.374146017644927 9.21258315883031 11.1350536160022 0 0 0
91 2 5.591408471638457 6.694830418785193 11.072972227611665 1 0 0
324 4 6.977029750021879 7.365601834940604 6.980791017869184 -1 1 2
160 3 10.262026489890264 8.580378912670422 9.655847268001423 -1 1 -1
73 2 11.478782558516254 6.213265700065144 9.887327782855692 -1 0 0
313 4 9.142184524306863 8.918587273262617 9.872401132290836 2 1 0
269 3 12.229891301443605 6.262996849163504 10.101758663199309 1 0 -1
248 3 11.803826158622599 9.943015379144512 10.54214406239581 1 -2 0
208 3 12.882478589577332 10.1251789274278 5.210995472787166 2 1 -3
189 3 12.37823937925576 7.34216518731669 8.917988763386784 0 0 -2
305 4 6.219778600813672 3.4840615103007906 2.015202608448662 -3 2 4
53 1 0.7531875750356896 7.228024639009475 11.006971325805925 2 1 1
228 3 8.686005844150088 5.592804035446052 1.363797585737165 0 0 0
105 2 12.582907181931699 5.551594504627908 12.688611736935641 0 1 -1
288 4 11.904608152207224 6.6366746085243875 4.930520918829615 2 -2 0
183 3 10.267478211669491 5.920034813671081 9.669525370726188 0 0 -1
114 3 0.9692715309727129 6.527733851703675 4.630024338851137 0 1 -1
112 3 12.63948913353293 5.127538146627522 10.904149789226999 0 -1 -1
301 4 4.85470394406518 5.527909007530061 9.305210059447827 4 0 -1
17 1 3.520008158768339 12.705645150438137 11.940008923564964 1 -1 0
103 2 1.85041795001658 11.17640909602871 2.411781372386633 1 0 2
21 1 0.6518792674015085 9.471952219745123 10.8887556224572 1 0 1
65 2 2.811343049211652 10.847561611676397 11.030719320655514 0 -1 0
285 4 13.201231658754452 8.798560692411918 9.325766200613938 -4 -2 1
314 4 6.538416486506181 1.200954559850451 7.590230885782128 2 3 2
343 4 2.267729005092927 12.05441136423697 12.374855025547227 1 0 0
184 3 11.586744925434651 12.162310263607072 8.82720930066522 0 -1 -1
296 4 0.6192645490946856 12.57832808780945 11.793511274236089 1 1 5
9 1 3.199589942179419 10.695378328573419 12.232171422247966 0 -2 1
226 3 8.624021570150099 11.715194208692406 5.1304507794684255 0 -1 -1
200 3 6.2642036767960985 8.144610369435343 2.414062299960973 -1 0 1
67 2 5.1529873295323325 10.97015304202872 10.219458883506615 0 -1 -1
48 1 6.4162857293585205 8.080138051685505 8.493799335718288 1 0 0
297 4 2.8229640479464146 12.00269248584258 10.990779803055524 1 -2 1
172 3 8.62285362841801 13.21336228680747 10.49037426476161 -1 0 -1
158 3 7.579138357012425 1.6955265254599445 8.722670655517241 0 1 0
144 3 9.178204913689758 10.223668159632073 7.799589082050771 -1 0 -1
139 3 7.283745665608543 12.620949003293411 7.448823334754226 -1 0 -3
35 1 8.962683035069023 12.212772877129915 10.32926538515758 -1 0 0
102 2 7.826592887031496 13.327516953647027 11.031321114422287 0 0 0
177 3 6.282271116574344 8.039946695765892 7.145757176218338 -1 -1 -2
87 2 7.401020983261469 11.406456520926092 7.897362072032844 0 0 1
19 1 10.130491065653999 9.55324017492752 12.617308470343179 0 0 0
147 3 4.460162465828617 2.4204771565041883 0.5810392084646313 4 3 3
135 3 9.709652997602696 10.986968501299113 10.523564832088603 -1 -1 -1
261 3 11.114598880035263 10.851511383509273 10.34515687472851 1 -2 -1
303 4 10.46870378362918 0.8094347693323658 8.351557950378842 -2 0 -1
260 3 12.591163835616932 12.085557207502546 7.862587909444547 -1 -1 -1
80 2 10.030364645508232 11.949795825126714 1.652064965555021 0 -1 0
259 3 8.366909553064646 7.464538706048307 5.00615142896782 -1 -1 -2
150 3 11.892310105291159 9.985015795475974 8.789998975143682 -1 1 -1
13 1 11.529577674896004 10.051098082309597 1.8127426450590647 -1 0 1
29 1 12.969433949019542 12.721346268236353 1.3646134495608175 1 0 1
321 4 12.42005933665573 10.166550843585643 10.011086675240495 -1 0 3
360 4 7.1495814646093425 5.52732901887654 6.101973511055222 -4 -1 -1
281 4 11.93239774700998 12.993793949227637 12.174539230589279 2 1 -1
2 1 10.962715536163468 10.882688621939536 12.30186460793399 1 0 0

Velocities

344 6.742687482149898 55.46627757118824 36.35938877645561
130 5.193385728902909 -8.471657856753449 9.452398765780151
82 0.6863738857050575 3.7742785546193285 6.960809861876447
222 -17.66499871437094 -33.853962950301415 -22.220383540728818
125 22.82494814488721 -1.9095359338455467 -8.419318324290831
123 -25.47680839770085 -21.601238609702236 -11.835282549154327
76 -15.882399118672108 -5.943426456111342 -8.160485620678214
124 7.683221544411281 -17.04176488711991 34.404138488817736
237 -10.696988779043563 12.774795290735774 -39.6295539109239
180 14.930243047973596 23.568138746331687 6.170057344404629
295 3.2981574620964063 39.84488683637614 26.11831918899193
23 10.299061909246289 -5.535177816807159 9.809516627895643
165 -25.87588308270561 -14.612693942029793 -0.21825384371339224
104 -9.94863413674922 -4.861884649587203 10.850996334077784
357 -14.074422201366541 29.23788376778167 -40.76464450554268
28 -19.98138679183756 3.9776959227436786 20.174908383511315
56 -1.4411373493945623 7.2014199389902505 0.5702749824493699
264 1.8796303423945162 -11.455672058929052 1.5237261352178173
346 47.352552178422535 -0.6915229461351176 -11.492100544686183
333 -7.320691155961102 15.346851992062346 -35.948076793678894
262 1.8749051974823772 22.714925075643357 14.45881147431946
166 9.419129077076809 6.960718192657052 -13.695919974105259
188 17.780592200911958 42.700128630567015 24.74832405453925
47 12.263474215048962 7.46758424753805 11.667625646524513
224 -5.67485373392176 2.5446704807124942 0.5422500388208465
220 -6.084628143695957 14.4898195714536 -1.401781249720531
8 39.872952873504765 5.557216856559351 42.94218868016263
40 -3.7297188386607867 1.4980079351923599 -2.2439207801170884
25 -6.514825890466787 18.274112993396624 10.719310435823848
136 11.674863503669128 -2.1347342955586215 1.7276400192087071
216 8.838179097934187 -30.4471421038959 -2.8438404170995364
175 10.082427719835724 -26.3290108850879 -7.177656288332917
127 -8.909883428268675 2.900702281640006 -19.40448054572838
218 -7.086971911331614 -7.637885712470215 1.0966571606397797
20 -8.57996877132501 -11.563148660297815 -15.206972788068784
251 -17.574860923911835 -29.861917189666052 -18.167789606400675
179 -4.274418895359193 -8.3837254850289 -4.654030890022824
79 -19.27295704060121 -11.324206922881197 -15.622706501552006
97 0.7347578472366311 2.7172542448217625 0.4041012000658722
16 -9.250215188864965 12.468941391720088 -18.10743754817642
168 -1.7493382838432407 -30.057660530485794 21.191740935131108
352 13.555912427032633 32.80856879088974 45.39042168741095
235 -5.624315003364062 -1.7753416870389758 -19.194194649609997
339 -20.092382958157568 0.40590736868410526 -9.259966705368084
169 6.660083791698794 22.06504929215027 -29.068148689957507
137 -4.04825364032489 18.483287307403252 -26.293247198919964
355 -6.455315934348166 -12.763584195038314 61.54021627317741
272 -41.65888713858458 -36.395748667946314 -7.0915184501012165
50 -10.7398693480241 4.2363321560180465 -17.62675114032306
33 3.679597709345224 1.5638381568811097 1.964956319713005
58 -1.0322046284912154 -0.9205267541170603 6.2774428879164565
142 4.482969697749906 7.105032810830597 -0.45954093765741005
221 9.837597815987627 0.3060608396932281 12.175774521409126
111 -2.528207040801212 22.96381571323122 -22.760588389246784
78 6.205179986326939 -10.672657375248384 -6.743456473450731
229 -0.7838140500426125 22.223576751375205 -3.0664925026792145
265 28.081507303471692 24.552490349128743 -26.06051242058698
152 5.926950063846959 4.627432070844662 6.736328251347761
109 -12.84142913362675 0.3157680423188155 7.2536432032506175
107 -11.112082684199626 -15.19017182196261 -0.5120891852287901
338 69.4378211654546 -4.275743794065766 -10.041497055331947
134 -18.454811634822818 12.46971159022283 12.316608403619526
253 -11.667313516339782 5.391055619453777 19.094501668366263
38 -21.0865636444345 -4.070862611531136 1.7639356583774195
155 19.68510120248959 -8.34693034601493 35.16314405558724
192 13.92901089216197 -14.34850759420964 -8.861515604810895
270 -14.915431914209327 19.11278732899244 -5.5738090453510285
217 0.5954794432243684 -0.8915270363794 -14.912659703697859
116 -2.940270339629412 -12.125963491129003 -10.1153502615696
246 -11.976543427977504 6.910299911623641 31.17916215251388
178 17.313045787232003 -27.747244678820614 -2.855228029357535
190 3.7160938494411244 -2.7113120525886503 -2.9450369329295087
174 -5.81482197403624 3.262613483000893 -3.0934177465601893
202 -7.0985986128539516 -23.29702713611179 -2.896027883858411
32 -3.9623485088984416 12.071905411960138 6.947741996005288
268 -1.8634638967085502 -1.8869303596693159 -1.4551282348293444
176 -13.301096798872647 1.8658422624458697 11.756151528558277
187 10.31494462602585 -1.6821371819416118 1.1573895863809778
128 1.782647110041845 -8.45808963192753 0.9088237216510255
62 -1.7488476091300877 -2.063062148243361 7.804727454701185
96 8.452805651840638 11.02959737045741 -32.0605178863173
45 -22.99001833057231 -12.141549980219326 3.860155291823831
312 -12.659411406246775 -39.60717212592135 -26.281460144948365
64 10.800354961657819 15.16793754836179 21.152373423159617
332 -20.96953890046787 9.09073897626453 -14.020677742459503
27 5.681768435736899 -21.48888709888454 -9.679391834844202
43 12.001401660675384 -1.8975875673245497 -9.377054147777102