LAMMPS data file via write_data, version 2 Aug 2023, timestep = 120, units = metal

28800 atoms
4 atom types

0.2554599136768019 55.78454008632322 xlo xhi
0.2554599136768019 55.78454008632322 ylo yhi
0.3026862645992594 66.09731373540059 zlo zhi

Masses

1 24.305
2 28.0855
3 15.9994
4 4.002602

Atoms # atomic

1 1 2.567405000657788 2.36978020443307 1.8526855612577433 0 0 0
58 2 2.501323081543826 55.677392459747985 3.4213193853471395 0 -1 0
109 3 0.31060534021454955 2.0076610391073304 1.6466201488779004 0 0 0
112 3 2.5158735983082483 0.7154498212008648 1.6626411829454428 0 0 0
113 3 0.9466106342422382 0.9427153310133529 3.561470291722701 0 0 0
114 3 1.7991367680410908 3.435722975735309 3.185716722816818 0 0 0
118 3 3.6577107075998705 1.848966777513895 3.633510986699877 0 0 0
120 3 1.1582966938957557 3.884304479676399 65.78127798729706 0 0 -1
115 3 3.3448214809130983 3.5970275040336612 65.85777489210007 0 0 -1
117 3 4.076667813741265 4.181894587045317 3.3720372307618165 0 0 0
73 2 4.803072525980638 2.710848900884888 65.50762793137815 0 0 -1
75 2 4.948084150878369 2.8252009449746818 3.2576657214099467 0 0 0
163 3 4.455526893643477 2.290032965858495 1.5004446141706465 0 0 0
167 3 5.788119947548132 1.3954490785939797 3.488032621021552 0 0 0
168 3 6.584268739141923 3.467856999585299 3.174298396852904 0 0 0
174 3 5.762623587387803 3.9499960313848743 0.3480887713114119 0 0 0
19 1 7.271260932590377 3.0173355624252634 1.6397169956350743 0 0 0
76 2 7.386619722551621 0.33292134762561826 3.407631776562217 0 0 0
166 3 7.161567503019209 0.8677506007427606 1.3005570416003636 0 0 0
93 2 9.567955930296883 2.3603349613812994 3.2619142539608332 0 0 0
172 3 8.11160823759869 1.7726261766094709 3.5239823248404503 0 0 0
217 3 9.77946729758651 2.2276535499228736 1.4031106205982176 0 0 0
221 3 10.309088708979662 0.8147474688050685 3.5446612059427434 0 0 0
222 3 10.861224812958413 3.5565311393527 2.8529243371069573 0 0 0
228 3 11.229859857112608 3.5927180687927094 65.6489746142513 0 0 -1
169 3 8.43928079399882 3.388051538003732 66.06330547570472 0 0 -1
171 3 8.702598893485268 3.7896935252690973 2.741438493783614 0 0 0
37 1 11.786922124259169 2.64174355821568 1.4656880001583599 0 0 0
94 2 11.798328786236073 55.66931594797636 3.2257034844045025 0 -1 0
220 3 11.551292478662576 0.7232370183268303 1.5843964739019087 0 0 0
226 3 12.519388652369804 1.766099957699469 3.7761227939058726 0 0 0
417 2 14.072945695319177 2.588966334633006 3.403879772220164 0 0 0
469 3 13.84986835311035 1.958974296460788 1.8801461535556456 0 0 0
225 3 13.16188584204898 3.9813955576017057 2.949625692851879 0 0 0
361 1 16.79626789700153 2.549741618269437 2.0545010844633667 0 0 0
418 2 16.576078420003054 55.7676210068661 3.339218682658421 0 -1 0
472 3 16.27221180600483 0.8225427173214621 1.814142314250439 0 0 0
473 3 14.915883428479873 0.8904591588929424 3.730695549735634 0 0 0
474 3 15.448814454483315 3.2880379821497225 3.2012307006947265 0 0 0
478 3 17.244499821087217 1.756143278699704 3.685372744912488 0 0 0
480 3 15.694305670165274 3.124600519168184 0.33494944094313195 0 0 0
435 2 18.723705256043793 2.6270393202039837 3.4450866592087905 0 0 0
475 3 18.271180695812433 3.65930190500385 65.56106484544557 0 0 -1
523 3 18.793438493590717 2.369707879836305 1.5203147913764963 0 0 0
527 3 19.74838249336011 1.378165818678116 4.024481456155349 0 0 0
528 3 20.2668515018801 3.5723353438843524 2.997639540312109 0 0 0
534 3 20.700391326311713 3.533546952780632 65.84093190314952 0 0 -1
379 1 21.5586746954482 2.753290699722301 1.4288554194375744 0 0 0
526 3 20.635607434747005 1.035480718368678 2.071008903407477 0 0 0
532 3 22.249845030142705 1.7414491109760013 3.9790130073261243 0 0 0
451 2 23.805117931704665 2.572516156541109 65.70402496818264 0 0 -1
453 2 23.567511862647805 2.6035481218833603 3.3724216600888446 0 0 0
577 3 23.45272269918263 2.2046033560121847 1.6631041685302894 0 0 0
581 3 24.20277526306253 1.0787778212098569 3.790083110071681 0 0 0
397 1 25.92230209211719 2.7556749080211373 1.4653327776394631 0 0 0
454 2 25.49935547211261 55.71903059477309 3.2558727613606986 0 -1 0
580 3 25.16680513750624 0.9848103879176784 1.461828090072221 0 0 0
582 3 24.922016915592575 3.623241633360879 2.705527443242472 0 0 0
588 3 25.154522693668333 3.5516290480251302 65.94090086806273 0 0 -1
531 3 22.4518115144713 3.975922389022303 3.0217644441718736 0 0 0
777 2 28.121847090919527 2.294453849245582 3.6079371290889757 0 0 0
829 3 27.58461179324165 2.011437732327109 1.265022948729124 0 0 0
833 3 28.590025818961916 0.7400323908085247 3.769097870183872 0 0 0
834 3 29.46841245151469 3.6340141009847664 2.737862276464417 0 0 0
840 3 29.216090196868464 3.790461683532139 0.334049342774019 0 0 0
583 3 27.34130997686935 4.071437864940291 65.75949585709999 0 0 -1
585 3 27.2994390708038 3.871948854657378 2.914570077649932 0 0 0
721 1 30.569211065612425 2.694003205191606 1.7180914844283568 0 0 0
778 2 30.19879804808908 55.7400552769719 3.4282231951522277 0 -1 0
832 3 29.94742509814839 0.798558415506789 1.7626800149622912 0 0 0
838 3 30.818309096014904 1.690416238333876 3.5445147175649097 0 0 0
795 2 32.66448805864008 2.507257736169888 3.348047239917411 0 0 0
883 3 32.553548522306315 2.1562575636973103 1.5240918731067936 0 0 0
887 3 33.427834688029364 1.1625037192562537 3.9500532020736037 0 0 0
835 3 31.79265785227449 3.8640806607843095 0.38949109674977656 0 0 0
837 3 31.65759182727041 4.059943249930055 3.0568585010797333 0 0 0
888 3 34.07892973473186 3.437183591066884 3.072479607199029 0 0 0
894 3 34.157794563810945 4.102722125545325 65.82821145044011 0 0 -1
739 1 35.046312814803485 2.8097879757938005 1.643552394746229 0 0 0
813 2 37.22888588475577 2.7946965756140103 3.717781164991325 0 0 0
886 3 34.528721011017936 0.9005207986950544 1.743137838391302 0 0 0
892 3 35.55590935929679 1.9701909466619616 3.8692891145693085 0 0 0
891 3 36.4371717233558 4.03862000566364 2.655716693856593 0 0 0
937 3 37.129624690800625 2.356476303035761 1.20367831284393 0 0 0
941 3 37.92405188526868 1.036731153323702 4.000730800408961 0 0 0
757 1 39.58192722386133 2.414220314283823 1.8454184771931847 0 0 0
940 3 39.14608911770178 0.8198659805324114 1.622325439619816 0 0 0
942 3 38.72390822325691 3.443723192330198 2.930023336719784 0 0 0
946 3 40.32745285344494 1.9098787805814708 3.5752202144833 0 0 0
948 3 38.73360109840363 3.8276475765343547 65.99042967990248 0 0 -1
945 3 41.04551437727701 4.013203139511207 3.245503500797052 0 0 0
24043 4 42.61866190425524 0.5386212466165985 65.08224318162011 0 0 0
1081 1 44.49864043712252 2.600733274397068 1.6148673954810262 0 0 0
1137 2 41.86837126181749 2.5441117940586566 3.686848986925594 0 0 0
1138 2 44.137873816080635 0.31275527327352043 3.29952357826976 0 0 0
1189 3 41.52321075126988 2.055390920056654 1.527229483064526 0 0 0
1192 3 43.70174099205855 1.039641325108652 1.9603399377241546 0 0 0
1193 3 42.528709249897105 0.9656188130745785 3.841579207556205 0 0 0
1194 3 43.156715761780426 3.443637970905054 3.047878485695856 0 0 0
1200 3 43.583894664210995 2.9983868825719404 65.708235294238 0 0 -1
1198 3 45.117933159509604 1.7901645491005538 3.7941901939065086 0 0 0
1153 2 46.57517902359752 2.7675154674254148 65.7879967454374 0 0 -1
1155 2 46.67540618732783 2.4750627458726076 3.3692260744555615 0 0 0
1243 3 46.42076281449216 2.118425571378859 1.6382873292670668 0 0 0
1247 3 47.31364536795391 1.1059796526596393 3.7401128880788894 0 0 0
1248 3 47.995539698724734 3.596299740111831 3.070653718162409 0 0 0
1254 3 47.6760999083456 3.8010817188459276 0.43759047157912767 0 0 0
1099 1 49.21492574682768 3.003131929619373 1.66540541332218 0 0 0
1156 2 48.86251848024375 0.46308463053440885 3.1036675648491165 0 0 0
1173 2 51.16340006569828 2.6164821612227516 3.3664166560155353 0 0 0
1246 3 48.38698979000941 0.9211419699742455 1.4853256100999843 0 0 0
1252 3 49.77516453053485 1.8867690125308028 3.2863601605509243 0 0 0
1297 3 51.09842078278582 2.446906422949576 1.3321926677669194 0 0 0
1301 3 52.22994262692365 1.01049623009852 3.9001841616096518 0 0 0
1249 3 49.92954141164258 3.8578194378730326 65.60315584617396 0 0 -1
1251 3 50.39235416842082 4.083795507486215 2.8912737869609586 0 0 0
57 2 55.76301413395191 2.662043770029656 3.4783251274185756 -1 0 0
1117 1 53.22467981589525 2.5385131666828538 1.504101967752875 0 0 0
1172 2 53.57958420147225 55.68416455013403 65.77269302531255 0 -1 -1
1300 3 53.244725418504956 0.6658726969858915 1.6251288614977428 0 0 0
1302 3 52.57260232260178 3.2324852784975926 2.93654138758612 0 0 0
1306 3 54.46999947151052 1.6133489715074336 3.7129390588353446 0 0 0
1308 3 52.33598335282276 4.084746400490936 64.96632508118866 0 0 -1
1303 3 54.542087939757025 3.7740112972382924 65.99035501323861 0 0 -1
1305 3 54.809662483084146 4.170355949683637 3.077965304863676 0 0 0
4 1 0.5198236116457043 4.639378368467712 1.5592577681178026 0 0 0
64 2 2.64559759373134 4.913448150588755 3.5195700672632295 0 0 0
127 3 55.48839334334743 6.539111180359409 1.620323137903741 -1 0 0
130 3 2.405117578528183 5.445416470981566 1.6281993994374715 0 0 0
131 3 0.9803934828799397 5.592968483490191 3.63451592938944 0 0 0
136 3 3.396240051534359 6.405545653168473 3.7931769934469215 0 0 0
7 1 2.6972143673787903 7.5259835069400784 1.3047557130912542 0 0 0
63 2 0.42492872438322715 7.09115644579209 3.310706695397382 0 0 0
22 1 5.069020109200152 4.995137773541699 1.8785318844810217 0 0 0
181 3 4.674438688001195 6.8674122532412305 1.4922878760103466 0 0 0
185 3 5.843117400375987 5.590340806877494 3.8472629673816123 0 0 0
82 2 7.389895315588838 4.922869376735388 3.3684395443611836 0 0 0
184 3 7.333119338385716 5.274265772957143 1.5567193910664268 0 0 0
81 2 5.066976625375445 7.337997907195568 3.4107659904173393 0 0 0
25 1 7.422509595643536 7.415323547320542 1.295018096723044 0 0 0
40 1 9.79812376229828 4.731311645721433 1.456908219664072 0 0 0
190 3 8.2339566717457 6.395996730473191 3.7717242642128936 0 0 0
235 3 9.337536200358752 6.842013282776661 1.4144333432953997 0 0 0
239 3 10.499867065089635 6.024707783788966 3.790860764023669 0 0 0
99 2 9.46131023879384 7.354649452596379 3.246038854931001 0 0 0
100 2 11.862810849127918 4.7858177480477755 3.3803881009736485 0 0 0
223 3 13.628331335227257 3.7475746742617475 65.9322032954216 0 0 -1
238 3 11.600807516992306 5.4017679655846536 1.6937597979044647 0 0 0
244 3 12.715630669467942 6.450548199652042 3.8380437619051153 0 0 0
364 1 14.67231021546562 4.429245170910404 1.528000113239825 0 0 0
487 3 13.753211898024256 6.334979252532818 1.7035040750829786 0 0 0
43 1 12.164612584379245 7.187217730196643 1.534130820507779 0 0 0
423 2 14.078813540698103 7.0176415740362845 3.213306651803697 0 0 0
424 2 16.636836965493796 4.835880331967287 3.5306829615450117 0 0 0
490 3 16.476772007877543 5.010969770387101 1.75651436365701 0 0 0
491 3 15.067700960190233 5.606195847845578 3.651683175922179 0 0 0
496 3 17.377311250392328 6.292868878841512 3.961339952908268 0 0 0
477 3 17.943195591541738 4.000171103725906 2.992231804855755 0 0 0
367 1 16.60880019475764 7.116759522927681 1.745793089276043 0 0 0
439 2 18.693786558692018 7.480086180774691 65.68657415047292 0 0 -1
441 2 18.777045675104258 7.219793218071463 3.525747014152099 0 0 0
382 1 19.19829726339425 4.640006346060573 1.2241334107090838 0 0 0
541 3 18.499041577827835 6.720023360483965 2.0013400842509474 0 0 0
545 3 19.768467130284737 5.626259028976952 4.000961123290188 0 0 0
440 2 21.653717795936352 5.016866399279148 65.8257053761392 0 0 -1
442 2 21.214929457860865 4.870515700644072 3.684351226407297 0 0 0
544 3 20.750453639799595 5.417457620465372 1.4924483543925506 0 0 0
385 1 21.41633691471332 7.13438072552367 2.129976248179103 0 0 0
400 1 23.704471774830832 4.7415340078623665 1.675422871068918 0 0 0
529 3 22.915149543385763 3.858547625981331 0.36727312647295923 0 0 0
595 3 23.17418584648456 6.40888408739727 1.5297431879396906 0 0 0
599 3 24.37824670112315 5.494475236491663 4.147217869000488 0 0 0
460 2 25.947848779120772 4.739691069120293 3.4839360815013785 0 0 0
598 3 25.560311042888095 5.5146511790593875 1.172731222436505 0 0 0
459 2 23.706382287944994 7.058558828011232 3.8230696530729906 0 0 0
403 1 25.768255218865637 7.473253282572465 1.3228448779133788 0 0 0
604 3 26.559670510785242 6.335555442892323 3.4270588742988797 0 0 0
724 1 28.447866783428054 4.821844778134291 1.6277634102447647 0 0 0
847 3 27.727673621325067 6.866840353547601 1.3467865505058514 0 0 0
851 3 28.845007207815552 5.685218030047231 3.400206427864828 0 0 0
783 2 28.194687320074426 7.11036173676218 3.3063194195434105 0 0 0
784 2 30.373770916715777 5.035631142077197 3.197175174755375 0 0 0
850 3 30.140334693814445 5.421900494871513 1.480215862252407 0 0 0
856 3 31.16033078080373 6.318064344494595 3.9705920582951677 0 0 0
742 1 32.99107565727626 4.6355315121860095 1.5903749728896495 0 0 0
901 3 32.21113697109517 6.4939470640779895 1.824507408064292 0 0 0
727 1 30.72499028391781 7.423598802883307 1.30846087167817 0 0 0
801 2 32.57355933865266 7.017898842094753 3.4940137642535545 0 0 0
802 2 35.11579007947881 4.765546651629536 3.402066059869806 0 0 0
889 3 36.369908351580484 3.8348683636984893 65.63354265379331 0 0 -1
904 3 34.82631351733861 5.386322873006954 1.715800584856418 0 0 0
910 3 35.85162517021049 6.321875632045423 3.810624433789293 0 0 0
745 1 35.218805036217404 7.656528316903672 1.4994783101929259 0 0 0
760 1 37.455616607090924 4.952476931756442 1.5422516047446382 0 0 0
955 3 36.98081473602097 6.911294752964309 1.5006022444713105 0 0 0
818 2 39.63787839487579 5.2184879499261925 65.48920481677439 0 0 -1
820 2 39.68005379874964 4.789628981596971 3.449684084509796 0 0 0
958 3 39.65226622498017 5.137542921308124 1.4934027161361092 0 0 0
964 3 40.277709072649905 6.398282039538438 3.666852823752198 0 0 0
819 2 37.307138746240824 7.158931643421699 3.440311381495846 0 0 0
763 1 39.65635356331146 7.2652002497218975 1.4512451632071313 0 0 0
943 3 41.41567848388425 4.231566738550702 65.62924378507283 0 0 -1
1084 1 41.87649212429575 4.716135790409794 1.8253551502293832 0 0 0
1144 2 44.30272368846003 4.78406641735351 3.438186643222973 0 0 0
1207 3 41.90027824421382 6.90285764362079 1.7470156155169447 0 0 0
1210 3 43.66691511011684 5.310313879782391 1.470687686252068 0 0 0
1211 3 42.97598413089588 5.755345509995753 3.813937798110739 0 0 0
1087 1 43.98016206814072 7.208689394410474 1.771249444576424 0 0 0
1143 2 41.857542521178026 7.159979794796411 3.3696522556283237 0 0 0
1216 3 45.15686685111005 6.146411350689657 3.8138913332381805 0 0 0
1102 1 46.78812565869603 4.894398734376254 1.3899132914834043 0 0 0
1195 3 45.56301220212437 3.9050647299595433 0.44692508836056355 0 0 0
1197 3 45.61744363086466 4.116689964055901 2.9259637546877655 0 0 0
1261 3 46.205577799253 6.714090466929564 1.7050308663834648 0 0 0
1265 3 47.29101890839742 5.658175171826232 3.5745200831910218 0 0 0
1161 2 46.47528827428523 7.133577755665847 3.3651551010843725 0 0 0
1120 1 50.896121949549965 4.700633704597661 1.3487715167570673 0 0 0
1162 2 49.03306286269103 5.037787391815592 3.3688367038938285 0 0 0
1264 3 48.80567295634735 5.3715710705540785 1.4734332415929978 0 0 0
1270 3 49.59092183232641 6.502879180803977 3.588888575252311 0 0 0
1315 3 51.161360239234234 6.837019769440797 1.504953123253748 0 0 0
1319 3 51.6945202000568 5.556323113801666 3.8399729695291507 0 0 0
1105 1 49.039126352760334 7.648760132074237 1.720589015436789 0 0 0
1177 2 51.308275592235255 7.5002344135520715 65.49178004693218 0 0 -1
1179 2 51.23028394463742 7.2531335650632185 3.273110003970796 0 0 0
1178 2 53.37923803565354 4.9906416436027605 65.54920378796484 0 0 -1
1180 2 53.14307703347417 4.651366838164779 3.4952004755931108 0 0 0
1318 3 53.0907139801231 5.06166055676419 1.4990246775162677 0 0 0
1324 3 54.03662337865111 6.09193908207704 3.6283981505213414 0 0 0
1123 1 53.492135162218425 6.936046592088355 1.5617919842814076 0 0 0
10 1 0.338925952336897 9.136369492388951 1.3308302365223912 0 0 0
68 2 2.948486799294399 9.608725982349563 65.25135823124766 0 0 -1
70 2 2.7251976908458864 9.557055382093376 3.505466389631685 0 0 0
132 3 1.7466915840442965 8.033535003744134 3.0276297416669595 0 0 0
138 3 1.7787722709082494 8.311817932097641 65.56790519164882 0 0 -1
148 3 2.595649093712256 9.604968387621346 1.5840409156440245 0 0 0
149 3 1.1629437763767694 10.234945925050663 3.7017741407241838 0 0 0
133 3 4.131904986914679 8.41110607885386 65.52936643756217 0 0 -1
154 3 3.3715440690422778 11.075312013076314 3.711570646896489 0 0 0
28 1 4.868732670077313 9.071977238628008 1.4723308806945685 0 0 0
135 3 4.0097210153960425 8.73474837184584 2.9747876055564815 0 0 0
186 3 6.364059596390144 7.9212838160680334 2.648703767782348 0 0 0
192 3 6.141477676088894 8.334923312101747 65.62278916940168 0 0 -1
86 2 7.428489147860142 9.378847338487216 65.34007715229326 0 0 -1
88 2 7.296971996138022 9.790336273626117 3.210300486982853 0 0 0
202 3 6.766018097461543 10.305553516244307 1.4212316058177468 0 0 0
46 1 9.615505841685744 9.430734413840755 1.6236466169147685 0 0 0
187 3 8.374175714446388 8.365325328024404 0.3551241154898003 0 0 0
189 3 8.463403238451928 8.712383597980176 3.1243868598436113 0 0 0
240 3 10.776361366680979 8.279850501882065 2.7909411052164947 0 0 0
246 3 10.812165014990768 7.867819666189504 65.52224691796496 0 0 -1
208 3 8.158604250325851 11.107987736036142 3.8447891823492 0 0 0
253 3 9.408256221370847 11.405393007215663 1.3496438295789663 0 0 0
106 2 11.888510538308614 9.387245079333805 3.447666884557437 0 0 0
241 3 13.249698917467724 7.895106405556908 0.3453156146069747 0 0 0
243 3 13.305133252725547 8.759068851344065 2.717120869240196 0 0 0
256 3 11.32172731731059 10.096977357693424 1.6003101605696874 0 0 0
370 1 14.028470258830243 9.48891325724063 1.3561548771527658 0 0 0
262 3 12.481790640902135 11.04371988396199 3.931092662458858 0 0 0
428 2 16.400196793413503 9.590302537537525 0.3135592142889901 0 0 0
430 2 16.39805689823298 9.352421036192744 3.626383895758733 0 0 0
492 3 15.3908944927983 7.84308121274704 3.1195277557660415 0 0 0
498 3 15.653231927683407 8.111559662970858 66.04788981002521 0 0 -1
508 3 15.904315291039483 9.949472347303697 1.801882501387413 0 0 0
509 3 14.819121489910906 10.18324266379781 4.033207131354393 0 0 0
493 3 18.06326242903008 8.847144333046113 0.5648133797960128 0 0 0
495 3 17.6323949716095 8.441579352747793 3.022072021621679 0 0 0
514 3 17.289123828456773 10.68158946567855 3.8628194947925354 0 0 0
388 1 19.243572085225374 9.396609552750736 1.9989196990466047 0 0 0
546 3 20.133439172585696 8.087140321296836 3.167926993411647 0 0 0
552 3 20.087708605691706 7.999970364523459 0.6515723959843285 0 0 0
563 3 19.684811027961675 9.999443476367569 3.7926247367933517 0 0 0
446 2 20.817837191206507 9.220991278887047 65.59856648714869 0 0 -1
448 2 21.20542823549858 9.435071857139292 3.7433106992201757 0 0 0
547 3 22.289744139658254 8.217754747966463 65.46034136629568 0 0 -1
562 3 21.07448303668153 9.80724428826402 1.4306194611362162 0 0 0
568 3 21.8786650900078 11.170753728485378 3.979097334615045 0 0 0
406 1 23.162658792052888 9.268111832034867 1.879981789677346 0 0 0
549 3 22.576016234651156 8.374874129759876 3.276349866023054 0 0 0
617 3 24.30591276763382 10.000866909654162 3.5912430173309127 0 0 0
466 2 25.803131117635278 9.47320389727366 3.3474156620651567 0 0 0
600 3 24.764853661075975 7.848393667391139 2.839949584447633 0 0 0
606 3 24.580045859525633 8.208785004648012 66.09263784955509 0 0 -1
616 3 25.775735605986014 10.036646153902522 1.8794410693540242 0 0 0
601 3 27.06284552503042 8.655959590504992 65.6619416746442 0 0 -1
603 3 27.08914451560974 8.605031647275176 2.8866339044069727 0 0 0
730 1 27.829321687933085 9.504506720951817 1.3862946932157714 0 0 0
852 3 29.366767108039525 8.121769479601408 2.6702134625833076 0 0 0
858 3 29.30801258472423 8.520711430828747 66.03927903338975 0 0 -1
869 3 29.056175474134168 10.345866771700976 3.6381508506485645 0 0 0
622 3 26.69547095569165 11.071086367351517 3.7516906214575205 0 0 0
790 2 30.43290250986072 9.494706834753384 3.079706813393125 0 0 0
868 3 30.358426224640976 9.965084170836661 1.5171600871857802 0 0 0
748 1 32.446168241367516 9.386015326187914 1.3696165766928141 0 0 0
853 3 31.990044208179594 8.039355936905986 65.72036346237495 0 0 -1
855 3 31.711521118295543 8.479569340353027 2.868874747234986 0 0 0
874 3 31.427223587310884 10.781878925715846 3.9362457275871705 0 0 0
906 3 33.96925102765521 7.839968007040427 3.029032122164173 0 0 0
912 3 34.23145430551531 7.6287093751797785 65.5418713970469 0 0 -1
923 3 33.41771420798225 10.151077965566127 3.7336411991583707 0 0 0
808 2 35.032515254351715 9.325554859022446 3.234547458260067 0 0 0
907 3 36.35682122533968 8.323001685320161 65.77533650696118 0 0 -1
909 3 36.54999959023361 8.697505715539029 2.8485404944623127 0 0 0
922 3 34.751016503634666 9.584609808378259 1.4613668083812046 0 0 0
928 3 35.56143516450486 11.097416218364458 3.4948907152653166 0 0 0
766 1 37.30084683851996 9.387044669532868 1.4271976164727558 0 0 0
977 3 38.23841206610859 10.381222007284892 3.6244418697380656 0 0 0
824 2 39.87892757101169 9.58129505941026 65.82440583948627 0 0 -1
826 2 39.67390440870932 9.514928100114586 3.462174479408408 0 0 0
960 3 38.675270411975596 7.926321651868221 2.9872886999074844 0 0 0
966 3 38.92759710070947 8.00352845631064 65.55465564011091 0 0 -1
976 3 39.29207922316705 9.682643607801934 1.6435969016179006 0 0 0
982 3 40.49276921845364 11.041773253619267 3.601693493139557 0 0 0
961 3 41.089807419138346 8.549988730383271 66.09706097410267 0 0 -1
963 3 41.287195955442 8.66311115069316 3.325504888172094 0 0 0
1090 1 42.08544058049744 9.492734994113043 1.5244056684208478 0 0 0
1150 2 44.241866108367134 9.374360497817719 3.277504294408331 0 0 0
1212 3 43.440913099440856 7.990866681946473 3.167989905101135 0 0 0
1218 3 43.51257340075184 8.19456934473681 66.00925568005557 0 0 -1
1228 3 44.13221791177116 9.699987016089525 1.6171903440269662 0 0 0
1229 3 42.82379182135047 10.504396318364794 3.3834870223590654 0 0 0
1108 1 46.81803155525106 9.250842482466117 1.3347525182786235 0 0 0
1213 3 45.590474021599306 8.613034911737707 65.97682067682699 0 0 -1
1215 3 45.77652585325483 8.772896018025932 2.89056229082847 0 0 0
1266 3 47.77165483539591 8.047734614910805 2.7937945553562966 0 0 0
1272 3 47.80068406300785 7.588634980686668 65.99581207522422 0 0 -1
1283 3 47.434431449327455 10.241328271794375 4.12361447022955 0 0 0
1234 3 45.02019447314042 10.801349197749557 3.9461488889880387 0 0 0
1126 1 51.12520902788148 9.60595822761296 1.45823553367233 0 0 0
1168 2 48.74104060011975 9.367790577568918 3.387832852704246 0 0 0
1267 3 49.954783669685646 8.538075742982368 65.89499633601545 0 0 -1
1269 3 50.1630708733837 8.304795984986395 2.6269954766308015 0 0 0
1282 3 48.47602804751986 9.798328800026676 1.4939500471143352 0 0 0
1288 3 49.61521701759549 10.984461478847754 3.7395318279238867 0 0 0
1337 3 51.96723755949158 10.273336398843629 3.801680443766092 0 0 0
1184 2 53.66759299682084 9.653144446656041 65.86397797601843 0 0 -1
1186 2 53.44109938608491 9.475743859454129 3.2039063545273962 0 0 0
1320 3 52.51076005639856 8.049164975996682 2.648446162205399 0 0 0
1321 3 54.824665086198216 8.440016389579922 66.02175269592303 0 0 -1
1323 3 54.926362032097394 8.486634920151863 2.830997614704417 0 0 0
1326 3 52.557883571777246 8.423423369706873 65.94186274805755 0 0 -1
1336 3 53.14393562100743 10.40077737653649 1.5264757163223874 0 0 0
1342 3 54.24663250950605 11.121193796579004 3.677750330685668 0 0 0
24394 4 51.201491220604154 10.196866888046461 64.95677883783591 0 0 0
13 1 2.530592450170814 11.890916107830957 1.6469336727533257 0 0 0
16 1 55.64617441314622 13.863133390904533 1.3763761273322281 -1 0 0
145 3 55.55850623577995 11.28336654083354 1.8456714824561298 -1 0 0
150 3 1.713164901484864 12.639784588109455 3.1115603054437986 0 0 0
156 3 1.521247955673921 12.50078918132528 66.05329446391225 0 0 -1
151 3 3.9632705608051677 12.779048363703843 65.94780864134904 0 0 -1
1496 2 2.6390478558837054 13.606412316389966 65.32125588169257 0 0 -1
1498 2 2.7374799292995315 14.096472348053942 3.149972386451515 0 0 0
1552 3 2.1802511650806125 14.28420375835486 1.303170528556742 0 0 0
34 1 5.037178161386891 13.688317923201378 1.3173413636211229 0 0 0
85 2 5.195540810350903 11.599406441399381 65.74228768901196 0 0 -1
87 2 4.874728635863776 11.829697566891147 3.2611658132465853 0 0 0
153 3 3.9927865012876724 13.21036715955957 2.624224657557981 0 0 0
199 3 4.400123829324945 11.23105804400658 1.491387540692043 0 0 0
204 3 6.348398685505408 12.776587506245368 3.108677731947715 0 0 0
210 3 6.403888034864982 12.915987442530342 65.89637905773996 0 0 -1
31 1 7.4317911795322695 12.1427478494588 1.3841706564100857 0 0 0
1607 3 5.798136740633747 14.81712868417662 3.923185710096788 0 0 0
1514 2 7.1245863728486265 14.45771735905538 65.82731643270951 0 0 -1
1516 2 7.280058151190047 14.303922304206612 3.2062740354038164 0 0 0
1606 3 6.5903814989461535 14.558161266224216 1.6133165002049448 0 0 0
52 1 9.765954328105149 14.198890885842909 1.388773750259666 0 0 0
105 2 9.558313606976371 11.822670990873698 3.431072380193576 0 0 0
205 3 8.58131769167762 13.533130308033265 65.9793679841616 0 0 -1
207 3 8.632056123682487 13.350352069152757 2.616850690765966 0 0 0
258 3 11.03337645256152 12.62364935265237 2.841221924618798 0 0 0
264 3 11.055490907397637 12.942607641080587 65.82107978418811 0 0 -1
1661 3 10.403129965434792 15.022883116388943 3.391233800954888 0 0 0
49 1 12.059283137819888 11.930242976519342 1.446259725308294 0 0 0
259 3 13.140009553193718 13.39907917827665 65.99397683193222 0 0 -1
261 3 13.259567395193011 13.23368830957698 3.068002610997983 0 0 0
376 1 14.055677579263271 14.130099544260368 1.6009147547676439 0 0 0
427 2 14.118699885007803 11.664551254168154 65.68773880920806 0 0 -1
429 2 14.03186072590356 11.646029025919926 3.7365673376149795 0 0 0
505 3 13.804382484153935 11.266336946834912 1.4499556328968928 0 0 0
1534 2 11.965514662369186 14.236042530826001 3.3894346673600357 0 0 0
1660 3 11.618495633179505 14.602905419776738 1.5033411375101535 0 0 0
373 1 16.66765371270225 11.951084942995996 1.732212193220107 0 0 0
510 3 15.401872933633147 12.525445644882938 3.235975978972445 0 0 0
516 3 15.413835814693552 12.863687881893068 0.3473712276578865 0 0 0
447 2 18.760883975120645 11.511524194512091 3.4183312115712674 0 0 0
511 3 17.606920083689893 12.668456745144756 66.06375515726467 0 0 -1
513 3 17.660224368959078 13.1928591503536 3.09327490878452 0 0 0
1858 2 16.39093580372845 14.09741058226398 3.366260574935013 0 0 0
1912 3 15.964184435471514 14.528236900979074 1.7027323155887826 0 0 0
394 1 18.985523368315206 13.672296448718786 2.1105890563698533 0 0 0
559 3 18.363503199503647 11.255891888376002 1.9412012935577225 0 0 0
564 3 20.082639297317595 12.445536110074485 2.8953099240739517 0 0 0
570 3 19.806644827159328 12.775890967719862 0.3078406915523307 0 0 0
391 1 21.150385757480446 11.72159456524063 1.4492147183467161 0 0 0
565 3 22.035584469894225 12.413350469958901 65.61799915971065 0 0 -1
1967 3 19.57513767563939 14.927844471476806 3.6251931787199676 0 0 0
1876 2 21.160273450786494 14.158263973345603 3.468875929593358 0 0 0
1966 3 20.63426166736316 14.581769059621125 1.3771056468254257 0 0 0
412 1 23.422573968377687 13.991208960070997 1.2170739322064206 0 0 0
463 2 23.17332317979221 11.473171436004028 65.1526145093151 0 0 -1
465 2 23.43354615375532 11.761322803519425 3.163048261220837 0 0 0
567 3 22.28178297127864 13.280377643655253 2.4538090891382125 0 0 0
613 3 23.123064700111332 11.162018299873615 1.4438161538497198 0 0 0
409 1 25.55392201015068 11.990600596745896 1.118335066304966 0 0 0
618 3 24.978255833888113 12.741017178678302 2.658298250351154 0 0 0
624 3 24.388084660177945 12.999081798974068 65.69915793540164 0 0 -1
1894 2 25.901971162422512 14.004672109765066 3.4288895449784356 0 0 0
2020 3 25.228973305710433 14.788075411489231 1.513837703368869 0 0 0
619 3 26.93794722604498 13.474249510791608 0.34785142727924706 0 0 0
621 3 27.459033386032708 13.216387329144617 3.2262511099330724 0 0 0
736 1 28.40158939627095 13.968474132669694 1.6658968053002885 0 0 0
787 2 27.78627104261695 11.921925077950714 65.53770665242466 0 0 -1
789 2 28.199640018560682 11.706993379015511 3.5611273201488327 0 0 0
865 3 27.56194047386321 11.5438538109315 1.268905139076399 0 0 0
870 3 29.706881375911287 12.530615282737779 2.923348715740535 0 0 0
876 3 29.446208030248787 12.408355887821548 0.3396328424875138 0 0 0
733 1 30.862343332552346 12.046740352757789 1.7036751420544505 0 0 0
754 1 32.998700275988895 14.200751560606689 1.6025464664569748 0 0 0
807 2 32.90886527633265 11.608939873684461 3.370575334641489 0 0 0
871 3 31.803847164223875 12.886179355520168 65.99723621259686 0 0 -1
873 3 31.97871022905566 13.21277109480841 2.912893383161652 0 0 0
919 3 32.72170589810412 11.155045656395428 1.575580223334112 0 0 0
2216 2 30.066799558090842 14.00523966640336 65.733556713228 0 0 -1
2218 2 30.333333778823892 14.271704759346113 3.4097759627243596 0 0 0
2272 3 30.139683774162233 14.482244957943582 1.8343849840060373 0 0 0
924 3 34.218280291356955 12.726811972912879 3.2252616137856225 0 0 0
930 3 34.01854832497979 12.938073379154273 0.5555246375817305 0 0 0
751 1 34.85414105401406 11.692669773595817 1.5464002166263164 0 0 0
925 3 36.364001156990795 12.913236448366828 65.76797132641063 0 0 -1
927 3 36.736019602124145 13.29938043790654 3.075655447497538 0 0 0
2234 2 35.22653992656691 14.144932674582773 65.56196174051622 0 0 -1
2236 2 34.936106764500536 14.218491049408025 3.487689586655817 0 0 0
2326 3 34.79145490364565 14.696098195374121 1.7280834647827872 0 0 0
772 1 37.17336907480147 13.984040442127473 1.6176797944330852 0 0 0
823 2 37.58494578368268 12.176514269597206 65.68074033991353 0 0 -1
825 2 37.172755491693586 11.739005309417122 3.343311655024738 0 0 0
973 3 37.52383112391174 12.004189266005683 1.4731069942514454 0 0 0
769 1 39.557615285543264 11.767765251940864 1.6144254468259638 0 0 0
978 3 38.84777966818761 12.67709019674086 3.2555888131153794 0 0 0