=== [Tue Apr 21 18:37:55 CDT 2026] TF N=28800 G=2 ===
MODEL=/work/nvme/bguf/akashgpt/qmd_data/He_MgSiO3/sim_data_ML/v1_i1/train/model-compression/pv_comp.pb
DeePMD-kit: Successfully load libcudart.so.12
DeePMD-kit: Successfully load libcudart.so.12
LAMMPS (2 Aug 2023 - Update 3)
LAMMPS (2 Aug 2023 - Update 3)
DeePMD-kit WARNING: Environmental variable DP_INTRA_OP_PARALLELISM_THREADS is not set. Tune DP_INTRA_OP_PARALLELISM_THREADS for the best performance. See https://deepmd.rtfd.io/parallelism/ for more information.
DeePMD-kit WARNING: Environmental variable DP_INTER_OP_PARALLELISM_THREADS is not set. Tune DP_INTER_OP_PARALLELISM_THREADS for the best performance. See https://deepmd.rtfd.io/parallelism/ for more information.
DeePMD-kit WARNING: Environmental variable DP_INTRA_OP_PARALLELISM_THREADS is not set. Tune DP_INTRA_OP_PARALLELISM_THREADS for the best performance. See https://deepmd.rtfd.io/parallelism/ for more information.
DeePMD-kit WARNING: Environmental variable DP_INTER_OP_PARALLELISM_THREADS is not set. Tune DP_INTER_OP_PARALLELISM_THREADS for the best performance. See https://deepmd.rtfd.io/parallelism/ for more information.
  using 1 OpenMP thread(s) per MPI task

variable        T1                  equal 3200
variable        T2                  equal 4800
variable        P1                  equal 100E4
variable        P2                  equal 10E4

variable        TEMP                equal ((${T1}+${T2})/2)
variable        TEMP                equal ((3200+${T2})/2)
variable        TEMP                equal ((3200+4800)/2)
variable        PRES                equal ((${P1}+${P2})/2)
variable        PRES                equal ((1000000+${P2})/2)
variable        PRES                equal ((1000000+100000)/2)

variable        TIMESTEP            equal 0.5e-3
variable        THERMO_FREQ         equal 100
variable        DUMP_FREQ           equal 500
variable        NSTEPS_relax        index 200
variable        NSTEPS_4training    index 5000
variable        TAU_T               equal 0.0100000
variable        TAU_P               equal 0.100000

variable        kBeV                equal 8.617333262e-5
variable        TeV                 equal ${TEMP}*${kBeV}
variable        TeV                 equal 4000*${kBeV}
variable        TeV                 equal 4000*8.617333262e-05

units           metal
boundary        p p p
atom_style      atomic
neighbor        1.0 bin
neigh_modify    every 1 delay 0 check no

read_data       conf.lmp
Reading data file ...
  orthogonal box = (0 0 0) to (56.04 56.04 66.4)
  1 by 1 by 1 MPI processor grid
  reading atoms ...
  28800 atoms
  read_data CPU = 0.041 seconds

# ${MODEL} is injected via `lmp -var MODEL <path>` from the sub script.
pair_style      deepmd ${MODEL} fparam ${TeV}
pair_style      deepmd /work/nvme/bguf/akashgpt/qmd_data/He_MgSiO3/sim_data_ML/v1_i1/train/model-compression/pv_comp.pb fparam ${TeV}
pair_style      deepmd /work/nvme/bguf/akashgpt/qmd_data/He_MgSiO3/sim_data_ML/v1_i1/train/model-compression/pv_comp.pb fparam 0.34469333048
Summary of lammps deepmd module ...
  >>> Info of deepmd-kit:
  installed to:       /work/nvme/bguf/agupta46/softwares/conda_envs_dir_secondary/envs/ALCHEMY_env
  source:             v3.1.3-29-gefc27cf7
  source branch:      master
  source commit:      efc27cf7
  source commit at:   2026-04-05 14:42:09 +0000
  support model ver.: 1.1 
  build variant:      cuda
  build with tf inc:  /work/nvme/bguf/agupta46/softwares/conda_envs_dir_secondary/envs/ALCHEMY_env/lib/python3.11/site-packages/tensorflow/include;/work/nvme/bguf/agupta46/softwares/conda_envs_dir_secondary/envs/ALCHEMY_env/lib/python3.11/site-packages/tensorflow/include
  build with tf lib:  /work/nvme/bguf/agupta46/softwares/conda_envs_dir_secondary/envs/ALCHEMY_env/lib/python3.11/site-packages/tensorflow/libtensorflow_cc.so.2
  set tf intra_op_parallelism_threads: 0
  set tf inter_op_parallelism_threads: 0
  >>> Info of lammps module:
  use deepmd-kit at:  /work/nvme/bguf/agupta46/softwares/conda_envs_dir_secondary/envs/ALCHEMY_env
  source:             
  source branch:      
  source commit:      
  source commit at:   
  build with inc:     
  build with lib:     
DeePMD-kit WARNING: Environmental variable DP_INTRA_OP_PARALLELISM_THREADS is not set. Tune DP_INTRA_OP_PARALLELISM_THREADS for the best performance. See https://deepmd.rtfd.io/parallelism/ for more information.
DeePMD-kit WARNING: Environmental variable DP_INTER_OP_PARALLELISM_THREADS is not set. Tune DP_INTER_OP_PARALLELISM_THREADS for the best performance. See https://deepmd.rtfd.io/parallelism/ for more information.
  using 1 OpenMP thread(s) per MPI task

variable        T1                  equal 3200
variable        T2                  equal 4800
variable        P1                  equal 100E4
variable        P2                  equal 10E4

variable        TEMP                equal ((${T1}+${T2})/2)
variable        TEMP                equal ((3200+${T2})/2)
variable        TEMP                equal ((3200+4800)/2)
variable        PRES                equal ((${P1}+${P2})/2)
variable        PRES                equal ((1000000+${P2})/2)
variable        PRES                equal ((1000000+100000)/2)

variable        TIMESTEP            equal 0.5e-3
variable        THERMO_FREQ         equal 100
variable        DUMP_FREQ           equal 500
variable        NSTEPS_relax        index 200
variable        NSTEPS_4training    index 5000
variable        TAU_T               equal 0.0100000
variable        TAU_P               equal 0.100000

variable        kBeV                equal 8.617333262e-5
variable        TeV                 equal ${TEMP}*${kBeV}
variable        TeV                 equal 4000*${kBeV}
variable        TeV                 equal 4000*8.617333262e-05

units           metal
boundary        p p p
atom_style      atomic
neighbor        1.0 bin
neigh_modify    every 1 delay 0 check no

read_data       conf.lmp
Reading data file ...
  orthogonal box = (0 0 0) to (56.04 56.04 66.4)
  1 by 1 by 1 MPI processor grid
  reading atoms ...
  28800 atoms
  read_data CPU = 0.041 seconds

# ${MODEL} is injected via `lmp -var MODEL <path>` from the sub script.
pair_style      deepmd ${MODEL} fparam ${TeV}
pair_style      deepmd /work/nvme/bguf/akashgpt/qmd_data/He_MgSiO3/sim_data_ML/v1_i1/train/model-compression/pv_comp.pb fparam ${TeV}
pair_style      deepmd /work/nvme/bguf/akashgpt/qmd_data/He_MgSiO3/sim_data_ML/v1_i1/train/model-compression/pv_comp.pb fparam 0.34469333048
Summary of lammps deepmd module ...
  >>> Info of deepmd-kit:
  installed to:       /work/nvme/bguf/agupta46/softwares/conda_envs_dir_secondary/envs/ALCHEMY_env
  source:             v3.1.3-29-gefc27cf7
  source branch:      master
  source commit:      efc27cf7
  source commit at:   2026-04-05 14:42:09 +0000
  support model ver.: 1.1 
  build variant:      cuda
  build with tf inc:  /work/nvme/bguf/agupta46/softwares/conda_envs_dir_secondary/envs/ALCHEMY_env/lib/python3.11/site-packages/tensorflow/include;/work/nvme/bguf/agupta46/softwares/conda_envs_dir_secondary/envs/ALCHEMY_env/lib/python3.11/site-packages/tensorflow/include
  build with tf lib:  /work/nvme/bguf/agupta46/softwares/conda_envs_dir_secondary/envs/ALCHEMY_env/lib/python3.11/site-packages/tensorflow/libtensorflow_cc.so.2
  set tf intra_op_parallelism_threads: 0
  set tf inter_op_parallelism_threads: 0
  >>> Info of lammps module:
  use deepmd-kit at:  /work/nvme/bguf/agupta46/softwares/conda_envs_dir_secondary/envs/ALCHEMY_env
  source:             
  source branch:      
  source commit:      
  source commit at:   
  build with inc:     
  build with lib:     
DeePMD-kit WARNING: Environmental variable DP_INTRA_OP_PARALLELISM_THREADS is not set. Tune DP_INTRA_OP_PARALLELISM_THREADS for the best performance. See https://deepmd.rtfd.io/parallelism/ for more information.
DeePMD-kit WARNING: Environmental variable DP_INTER_OP_PARALLELISM_THREADS is not set. Tune DP_INTER_OP_PARALLELISM_THREADS for the best performance. See https://deepmd.rtfd.io/parallelism/ for more information.
WARNING: All log messages before absl::InitializeLog() is called are written to STDERR
I0000 00:00:1776814679.793227  146996 cpu_feature_guard.cc:227] This TensorFlow binary is optimized to use available CPU instructions in performance-critical operations.
To enable the following instructions: AVX2 FMA, in other operations, rebuild TensorFlow with the appropriate compiler flags.
WARNING: All log messages before absl::InitializeLog() is called are written to STDERR
I0000 00:00:1776814679.793463  146995 cpu_feature_guard.cc:227] This TensorFlow binary is optimized to use available CPU instructions in performance-critical operations.
To enable the following instructions: AVX2 FMA, in other operations, rebuild TensorFlow with the appropriate compiler flags.
I0000 00:00:1776814679.909117  146995 gpu_device.cc:2043] Created device /job:localhost/replica:0/task:0/device:GPU:0 with 36398 MB memory:  -> device: 0, name: NVIDIA A100-SXM4-40GB, pci bus id: 0000:46:00.0, compute capability: 8.0
I0000 00:00:1776814679.909124  146996 gpu_device.cc:2043] Created device /job:localhost/replica:0/task:0/device:GPU:0 with 36398 MB memory:  -> device: 0, name: NVIDIA A100-SXM4-40GB, pci bus id: 0000:07:00.0, compute capability: 8.0
I0000 00:00:1776814680.259977  146996 mlir_graph_optimization_pass.cc:437] MLIR V1 optimization pass is not enabled
I0000 00:00:1776814680.269706  146995 mlir_graph_optimization_pass.cc:437] MLIR V1 optimization pass is not enabled
  >>> Info of model(s):
  using   1 model(s): /work/nvme/bguf/akashgpt/qmd_data/He_MgSiO3/sim_data_ML/v1_i1/train/model-compression/pv_comp.pb 
  rcut in model:      6
  ntypes in model:    5
  using fparam(s):    0.344693  
  >>> Info of model(s):
  using   1 model(s): /work/nvme/bguf/akashgpt/qmd_data/He_MgSiO3/sim_data_ML/v1_i1/train/model-compression/pv_comp.pb 
  rcut in model:      6
  ntypes in model:    5
  using fparam(s):    0.344693  
pair_coeff      * *

# Equilibration
reset_timestep  0
velocity        all create ${T1} 6149
velocity        all create 3200 6149
fix             NPTSTATE all npt temp ${T1} ${T1} ${TAU_T} iso ${P1} ${P1} ${TAU_P}
fix             NPTSTATE all npt temp 3200 ${T1} ${TAU_T} iso ${P1} ${P1} ${TAU_P}
fix             NPTSTATE all npt temp 3200 3200 ${TAU_T} iso ${P1} ${P1} ${TAU_P}
fix             NPTSTATE all npt temp 3200 3200 0.01 iso ${P1} ${P1} ${TAU_P}
fix             NPTSTATE all npt temp 3200 3200 0.01 iso 1000000 ${P1} ${TAU_P}
fix             NPTSTATE all npt temp 3200 3200 0.01 iso 1000000 1000000 ${TAU_P}
fix             NPTSTATE all npt temp 3200 3200 0.01 iso 1000000 1000000 0.1
timestep        ${TIMESTEP}
timestep        0.0005
thermo          ${THERMO_FREQ}
thermo          100
thermo_style    custom step temp press vol etotal ke pe enthalpy
run             ${NSTEPS_relax}
run             20

CITE-CITE-CITE-CITE-CITE-CITE-CITE-CITE-CITE-CITE-CITE-CITE-CITE

Your simulation uses code contributions which should be cited:
- USER-DEEPMD package:
The log file lists these citations in BibTeX format.

CITE-CITE-CITE-CITE-CITE-CITE-CITE-CITE-CITE-CITE-CITE-CITE-CITE

Generated 0 of 6 mixed pair_coeff terms from geometric mixing rule
Neighbor list info ...
  update: every = 1 steps, delay = 0 steps, check = no
  max neighbors/atom: 2000, page size: 100000
  master list distance cutoff = 7
  ghost atom cutoff = 7
  binsize = 3.5, bins = 17 17 19
  1 neighbor lists, perpetual/occasional/extra = 1 0 0
  (1) pair deepmd, perpetual
      attributes: full, newton on
      pair build: full/bin/atomonly
      stencil: full/bin/3d
      bin: standard
Setting up Verlet run ...
  Unit style    : metal
  Current step  : 0
  Time step     : 0.0005
Per MPI rank memory allocation (min/avg/max) = 30.7 | 30.7 | 30.7 Mbytes
   Step          Temp          Press          Volume         TotEng         KinEng         PotEng        Enthalpy   
         0   3200           436332.63      208527.98     -171619.03      11912.201     -183531.24     -114829.06    
        20   5347.7534      593358.65      199556.63     -169760.08      19907.349     -189667.43     -95855.208    
Loop time of 5.43096 on 1 procs for 20 steps with 28800 atoms

Performance: 0.159 ns/day, 150.860 hours/ns, 3.683 timesteps/s, 106.059 katom-step/s
98.9% CPU use with 1 MPI tasks x 1 OpenMP threads

MPI task timing breakdown:
Section |  min time  |  avg time  |  max time  |%varavg| %total
---------------------------------------------------------------
Pair    | 2.5759     | 2.5759     | 2.5759     |   0.0 | 47.43
Neigh   | 2.8209     | 2.8209     | 2.8209     |   0.0 | 51.94
Comm    | 0.012608   | 0.012608   | 0.012608   |   0.0 |  0.23
Output  | 0.00013153 | 0.00013153 | 0.00013153 |   0.0 |  0.00
Modify  | 0.017698   | 0.017698   | 0.017698   |   0.0 |  0.33
Other   |            | 0.003737   |            |       |  0.07

Nlocal:          28800 ave       28800 max       28800 min
Histogram: 1 0 0 0 0 0 0 0 0 0
Nghost:          27228 ave       27228 max       27228 min
Histogram: 1 0 0 0 0 0 0 0 0 0
Neighs:              0 ave           0 max           0 min
Histogram: 1 0 0 0 0 0 0 0 0 0
FullNghs:  5.94694e+06 ave 5.94694e+06 max 5.94694e+06 min
Histogram: 1 0 0 0 0 0 0 0 0 0

Total # of neighbors = 5946942
Ave neighs/atom = 206.49104
Neighbor list builds = 20
Dangerous builds not checked
unfix           NPTSTATE

# Main timed loop — this is the number used for the ms/step metric.
velocity        all create ${T1} 6149
velocity        all create 3200 6149
fix             4TRAINING all npt temp ${T1} ${T2} ${TAU_T} iso ${P1} ${P2} ${TAU_P}
fix             4TRAINING all npt temp 3200 ${T2} ${TAU_T} iso ${P1} ${P2} ${TAU_P}
fix             4TRAINING all npt temp 3200 4800 ${TAU_T} iso ${P1} ${P2} ${TAU_P}
fix             4TRAINING all npt temp 3200 4800 0.01 iso ${P1} ${P2} ${TAU_P}
fix             4TRAINING all npt temp 3200 4800 0.01 iso 1000000 ${P2} ${TAU_P}
fix             4TRAINING all npt temp 3200 4800 0.01 iso 1000000 100000 ${TAU_P}
pair_coeff      * *

# Equilibration
reset_timestep  0
velocity        all create ${T1} 6149
velocity        all create 3200 6149
fix             NPTSTATE all npt temp ${T1} ${T1} ${TAU_T} iso ${P1} ${P1} ${TAU_P}
fix             NPTSTATE all npt temp 3200 ${T1} ${TAU_T} iso ${P1} ${P1} ${TAU_P}
fix             NPTSTATE all npt temp 3200 3200 ${TAU_T} iso ${P1} ${P1} ${TAU_P}
fix             NPTSTATE all npt temp 3200 3200 0.01 iso ${P1} ${P1} ${TAU_P}
fix             NPTSTATE all npt temp 3200 3200 0.01 iso 1000000 ${P1} ${TAU_P}
fix             NPTSTATE all npt temp 3200 3200 0.01 iso 1000000 1000000 ${TAU_P}
fix             NPTSTATE all npt temp 3200 3200 0.01 iso 1000000 1000000 0.1
timestep        ${TIMESTEP}
timestep        0.0005
thermo          ${THERMO_FREQ}
thermo          100
thermo_style    custom step temp press vol etotal ke pe enthalpy
run             ${NSTEPS_relax}
run             20

CITE-CITE-CITE-CITE-CITE-CITE-CITE-CITE-CITE-CITE-CITE-CITE-CITE

Your simulation uses code contributions which should be cited:
- USER-DEEPMD package:
The log file lists these citations in BibTeX format.

CITE-CITE-CITE-CITE-CITE-CITE-CITE-CITE-CITE-CITE-CITE-CITE-CITE

Generated 0 of 6 mixed pair_coeff terms from geometric mixing rule
Neighbor list info ...
  update: every = 1 steps, delay = 0 steps, check = no
  max neighbors/atom: 2000, page size: 100000
  master list distance cutoff = 7
  ghost atom cutoff = 7
  binsize = 3.5, bins = 17 17 19
  1 neighbor lists, perpetual/occasional/extra = 1 0 0
  (1) pair deepmd, perpetual
      attributes: full, newton on
      pair build: full/bin/atomonly
      stencil: full/bin/3d
      bin: standard
Setting up Verlet run ...
  Unit style    : metal
  Current step  : 0
  Time step     : 0.0005
Per MPI rank memory allocation (min/avg/max) = 30.7 | 30.7 | 30.7 Mbytes
   Step          Temp          Press          Volume         TotEng         KinEng         PotEng        Enthalpy   
         0   3200           436332.63      208527.98     -171619.03      11912.201     -183531.24     -114829.06    
        20   5347.7534      593358.65      199556.63     -169760.08      19907.349     -189667.43     -95855.208    
Loop time of 5.42832 on 1 procs for 20 steps with 28800 atoms

Performance: 0.159 ns/day, 150.787 hours/ns, 3.684 timesteps/s, 106.110 katom-step/s
97.1% CPU use with 1 MPI tasks x 1 OpenMP threads

MPI task timing breakdown:
Section |  min time  |  avg time  |  max time  |%varavg| %total
---------------------------------------------------------------
Pair    | 2.5732     | 2.5732     | 2.5732     |   0.0 | 47.40
Neigh   | 2.8196     | 2.8196     | 2.8196     |   0.0 | 51.94
Comm    | 0.01277    | 0.01277    | 0.01277    |   0.0 |  0.24
Output  | 0.00012798 | 0.00012798 | 0.00012798 |   0.0 |  0.00
Modify  | 0.018554   | 0.018554   | 0.018554   |   0.0 |  0.34
Other   |            | 0.004007   |            |       |  0.07

Nlocal:          28800 ave       28800 max       28800 min
Histogram: 1 0 0 0 0 0 0 0 0 0
Nghost:          27228 ave       27228 max       27228 min
Histogram: 1 0 0 0 0 0 0 0 0 0
Neighs:              0 ave           0 max           0 min
Histogram: 1 0 0 0 0 0 0 0 0 0
FullNghs:  5.94694e+06 ave 5.94694e+06 max 5.94694e+06 min
Histogram: 1 0 0 0 0 0 0 0 0 0

Total # of neighbors = 5946942
Ave neighs/atom = 206.49104
Neighbor list builds = 20
Dangerous builds not checked
unfix           NPTSTATE

# Main timed loop — this is the number used for the ms/step metric.
velocity        all create ${T1} 6149
velocity        all create 3200 6149
fix             4TRAINING all npt temp ${T1} ${T2} ${TAU_T} iso ${P1} ${P2} ${TAU_P}
fix             4TRAINING all npt temp 3200 ${T2} ${TAU_T} iso ${P1} ${P2} ${TAU_P}
fix             4TRAINING all npt temp 3200 4800 ${TAU_T} iso ${P1} ${P2} ${TAU_P}
fix             4TRAINING all npt temp 3200 4800 0.01 iso ${P1} ${P2} ${TAU_P}
fix             4TRAINING all npt temp 3200 4800 0.01 iso 1000000 ${P2} ${TAU_P}
fix             4TRAINING all npt temp 3200 4800 0.01 iso 1000000 100000 ${TAU_P}
fix             4TRAINING all npt temp 3200 4800 0.01 iso 1000000 100000 0.1
timestep        ${TIMESTEP}
timestep        0.0005
thermo          ${THERMO_FREQ}
thermo          100
thermo_style    custom step temp press vol etotal ke pe enthalpy
dump            myDUMP all custom ${DUMP_FREQ} npt.dump id type element x y z
dump            myDUMP all custom 500 npt.dump id type element x y z
dump_modify     myDUMP sort id
dump_modify     myDUMP element Mg Si O He
run             ${NSTEPS_4training}
run             100
Generated 0 of 6 mixed pair_coeff terms from geometric mixing rule
Setting up Verlet run ...
  Unit style    : metal
  Current step  : 20
  Time step     : 0.0005
Per MPI rank memory allocation (min/avg/max) = 32.25 | 32.25 | 32.25 Mbytes
   Step          Temp          Press          Volume         TotEng         KinEng         PotEng        Enthalpy   
        20   3200           550564.99      199556.63     -177755.23      11912.201     -189667.43     -109180.45    
       100   4208.5525      499501.25      197239.28     -178279.79      15666.602     -193946.39     -116787.64    
       120   4223.3731      402064.34      202876.34     -179016.75      15721.772     -194738.52     -128105.17    
Loop time of 27.7235 on 1 procs for 100 steps with 28800 atoms

Performance: 0.156 ns/day, 154.019 hours/ns, 3.607 timesteps/s, 103.883 katom-step/s
99.2% CPU use with 1 MPI tasks x 1 OpenMP threads

MPI task timing breakdown:
Section |  min time  |  avg time  |  max time  |%varavg| %total
---------------------------------------------------------------
Pair    | 12.969     | 12.969     | 12.969     |   0.0 | 46.78
Neigh   | 14.583     | 14.583     | 14.583     |   0.0 | 52.60
Comm    | 0.063588   | 0.063588   | 0.063588   |   0.0 |  0.23
Output  | 0.0002798  | 0.0002798  | 0.0002798  |   0.0 |  0.00
Modify  | 0.088199   | 0.088199   | 0.088199   |   0.0 |  0.32
Other   |            | 0.01926    |            |       |  0.07

Nlocal:          28800 ave       28800 max       28800 min
Histogram: 1 0 0 0 0 0 0 0 0 0
Nghost:          26209 ave       26209 max       26209 min
Histogram: 1 0 0 0 0 0 0 0 0 0
Neighs:              0 ave           0 max           0 min
Histogram: 1 0 0 0 0 0 0 0 0 0
FullNghs:  5.86963e+06 ave 5.86963e+06 max 5.86963e+06 min
Histogram: 1 0 0 0 0 0 0 0 0 0

Total # of neighbors = 5869630
Ave neighs/atom = 203.8066
Neighbor list builds = 100
Dangerous builds not checked
unfix           4TRAINING
undump          myDUMP

write_data      conf.lmp.end
System init for write_data ...
Generated 0 of 6 mixed pair_coeff terms from geometric mixing rule
Total wall time: 0:00:45
fix             4TRAINING all npt temp 3200 4800 0.01 iso 1000000 100000 0.1
timestep        ${TIMESTEP}
timestep        0.0005
thermo          ${THERMO_FREQ}
thermo          100
thermo_style    custom step temp press vol etotal ke pe enthalpy
dump            myDUMP all custom ${DUMP_FREQ} npt.dump id type element x y z
dump            myDUMP all custom 500 npt.dump id type element x y z
dump_modify     myDUMP sort id
dump_modify     myDUMP element Mg Si O He
run             ${NSTEPS_4training}
run             100
Generated 0 of 6 mixed pair_coeff terms from geometric mixing rule
Setting up Verlet run ...
  Unit style    : metal
  Current step  : 20
  Time step     : 0.0005
Per MPI rank memory allocation (min/avg/max) = 32.25 | 32.25 | 32.25 Mbytes
   Step          Temp          Press          Volume         TotEng         KinEng         PotEng        Enthalpy   
        20   3200           550564.99      199556.63     -177755.23      11912.201     -189667.43     -109180.45    
       100   4208.5525      499501.25      197239.28     -178279.79      15666.602     -193946.39     -116787.64    
       120   4223.3731      402064.34      202876.34     -179016.75      15721.772     -194738.52     -128105.17    
Loop time of 27.7681 on 1 procs for 100 steps with 28800 atoms

Performance: 0.156 ns/day, 154.267 hours/ns, 3.601 timesteps/s, 103.716 katom-step/s
97.2% CPU use with 1 MPI tasks x 1 OpenMP threads

MPI task timing breakdown:
Section |  min time  |  avg time  |  max time  |%varavg| %total
---------------------------------------------------------------
Pair    | 13.009     | 13.009     | 13.009     |   0.0 | 46.85
Neigh   | 14.59      | 14.59      | 14.59      |   0.0 | 52.54
Comm    | 0.063004   | 0.063004   | 0.063004   |   0.0 |  0.23
Output  | 0.0002696  | 0.0002696  | 0.0002696  |   0.0 |  0.00
Modify  | 0.086965   | 0.086965   | 0.086965   |   0.0 |  0.31
Other   |            | 0.01933    |            |       |  0.07

Nlocal:          28800 ave       28800 max       28800 min
Histogram: 1 0 0 0 0 0 0 0 0 0
Nghost:          26209 ave       26209 max       26209 min
Histogram: 1 0 0 0 0 0 0 0 0 0
Neighs:              0 ave           0 max           0 min
Histogram: 1 0 0 0 0 0 0 0 0 0
FullNghs:  5.86963e+06 ave 5.86963e+06 max 5.86963e+06 min
Histogram: 1 0 0 0 0 0 0 0 0 0

Total # of neighbors = 5869630
Ave neighs/atom = 203.8066
Neighbor list builds = 100
Dangerous builds not checked
unfix           4TRAINING
undump          myDUMP

write_data      conf.lmp.end
System init for write_data ...
Generated 0 of 6 mixed pair_coeff terms from geometric mixing rule
Total wall time: 0:00:46
=== [Tue Apr 21 18:38:43 CDT 2026] Done ===
