 vasp.6.6.0 06Mar2026 (build Apr  4 2026 18:29:51) complex                       
 executed on              LinuxNV date 2026.04.21  19:51:04
 running    1 mpi-ranks, with    8 threads/rank, on    1 nodes
 distrk:  each k-point on    1 cores,    1 groups
 distr:  one band on NCORE=   1 cores,    1 groups
 Offloading initialized ...    1 GPUs detected


--------------------------------------------------------------------------------------------------------


 INCAR:
   SYSTEM = Pv
   NWRITE = 2
   LPETIM = F      write-flag & timer
   ISTART = 0                 job   : 0-new  1-cont  2-samecut
   LWAVE = .FALSE.
   LCHARG = .FALSE.
   NPAR = 1
   NSIM = 32
   KPAR = 1
   NBANDS = 1536              Usually VASP good at guessing this unless highly dissociated system (may underestimate)
   ENCUT = 800.00 EV
   NELM = 8
   EDIFF = 1E-06             stopping-criterion for ELM
   MAXMIX = 50
   LMAXMIX = 2
   METAGGA = R2SCAN
   LASPH = .TRUE.
   NSW = 0                 number of steps for IOM
   NBLOCK = 1
   KBLOCK = 1     inner block
   ISYM = 0
   ISIF = 2
   POTIM = 1.000             time-step for ion-motion
   TEBEG = 4000         initial temperature
   SMASS = 0.00              Nose mass-parameter (am)
   ISMEAR = -1
   SIGMA = 0.3446936800103153          broadening in eV -4-tet -1-fermi 0-gaus
   ALGO = N
   LREAL = A

 POTCAR:    PAW_PBE Mg_pv 13Apr2007               
 POTCAR:    PAW_PBE Si 05Jan2001                  
 POTCAR:    PAW_PBE O 08Apr2002                   
 POTCAR:     PAW_PBE He 05Jan2001                 
 POTCAR:    PAW_PBE Mg_pv 13Apr2007               
   VRHFIN =Mg: p6s2                                                                                 
   LEXCH  = PE                                                                                      
   EATOM  =  1056.7344 eV,   77.6678 Ry                                                             
                                                                                                    
   TITEL  = PAW_PBE Mg_pv 13Apr2007                                                                 
   LULTRA =        F    use ultrasoft PP ?                                                          
   IUNSCR =        1    unscreen: 0-lin 1-nonlin 2-no                                               
   RPACOR =    1.500    partial core radius                                                         
   POMASS =   24.305; ZVAL   =    8.000    mass and valenz                                          
   RCORE  =    2.000    outmost cutoff radius                                                       
   RWIGS  =    2.000; RWIGS  =    1.058    wigner-seitz radius (au A)                               
   ENMAX  =  403.929; ENMIN  =  302.947 eV                                                          
   RCLOC  =    1.506    cutoff for local pot                                                        
   LCOR   =        T    correct aug charges                                                         
   LPAW   =        T    paw PP                                                                      
   EAUG   =  758.780                                                                                
   DEXC   =    0.000                                                                                
   RMAX   =    2.045    core radius for proj-oper                                                   
   RAUG   =    1.300    factor for augmentation sphere                                              
   RDEP   =    2.025    radius for radial grids                                                     
   RDEPT  =    1.557    core radius for aug-charge                                                  
                                                                                                    
   Atomic configuration                                                                             
    5 entries                                                                                       
     n  l   j            E        occ.                                                              
     1  0  0.50     -1259.6230   2.0000                                                             
     2  0  0.50       -79.8442   2.0000                                                             
     2  1  1.50       -46.6121   6.0000                                                             
     3  0  0.50        -4.7055   2.0000                                                             
     3  2  1.50        -1.3606   0.0000                                                             
   Description                                                                                      
     l       E           TYP  RCUT    TYP  RCUT                                                     
     1    -46.6121073     23  1.600                                                                 
     1      2.7211652     23  1.600                                                                 
     0     -4.7054661     23  2.000                                                                 
     0     61.2262170     23  2.000                                                                 
     2     -1.3605826     23  2.000                                                                 
  local pseudopotential read in
  partial core-charges read in
  partial kinetic energy density read in
  atomic valenz-charges read in
  non local Contribution for L=            1  read in
    real space projection operators read in
  non local Contribution for L=            1  read in
    real space projection operators read in
  non local Contribution for L=            0  read in
    real space projection operators read in
  non local Contribution for L=            0  read in
    real space projection operators read in
  non local Contribution for L=            2  read in
    real space projection operators read in
    PAW grid and wavefunctions read in
 
   number of l-projection  operators is LMAX  =            5
   number of lm-projection operators is LMMAX =           13
 
 POTCAR:    PAW_PBE Si 05Jan2001                  
   VRHFIN =Si: s2p2                                                                                 
   LEXCH  = PE                                                                                      
   EATOM  =   103.0669 eV,    7.5752 Ry                                                             
                                                                                                    
   TITEL  = PAW_PBE Si 05Jan2001                                                                    
   LULTRA =        F    use ultrasoft PP ?                                                          
   IUNSCR =        1    unscreen: 0-lin 1-nonlin 2-no                                               
   RPACOR =    1.500    partial core radius                                                         
   POMASS =   28.085; ZVAL   =    4.000    mass and valenz                                          
   RCORE  =    1.900    outmost cutoff radius                                                       
   RWIGS  =    2.480; RWIGS  =    1.312    wigner-seitz radius (au A)                               
   ENMAX  =  245.345; ENMIN  =  184.009 eV                                                          
   ICORE  =        2    local potential                                                             
   LCOR   =        T    correct aug charges                                                         
   LPAW   =        T    paw PP                                                                      
   EAUG   =  322.069                                                                                
   DEXC   =    0.000                                                                                
   RMAX   =    1.950    core radius for proj-oper                                                   
   RAUG   =    1.300    factor for augmentation sphere                                              
   RDEP   =    1.993    radius for radial grids                                                     
   RDEPT  =    1.837    core radius for aug-charge                                                  
                                                                                                    
   Atomic configuration                                                                             
    6 entries                                                                                       
     n  l   j            E        occ.                                                              
     1  0  0.50     -1785.8828   2.0000                                                             
     2  0  0.50      -139.4969   2.0000                                                             
     2  1  1.50       -95.5546   6.0000                                                             
     3  0  0.50       -10.8127   2.0000                                                             
     3  1  0.50        -4.0811   2.0000                                                             
     3  2  1.50        -4.0817   0.0000                                                             
   Description                                                                                      
     l       E           TYP  RCUT    TYP  RCUT                                                     
     0    -10.8127223     23  1.900                                                                 
     0     -7.6451159     23  1.900                                                                 
     1     -4.0811372     23  1.900                                                                 
     1      2.4879257     23  1.900                                                                 
     2     -4.0817478      7  1.900                                                                 
  local pseudopotential read in
  partial core-charges read in
  partial kinetic energy density read in
  atomic valenz-charges read in
  non local Contribution for L=            0  read in
    real space projection operators read in
  non local Contribution for L=            0  read in
    real space projection operators read in
  non local Contribution for L=            1  read in
    real space projection operators read in
  non local Contribution for L=            1  read in
    real space projection operators read in
    PAW grid and wavefunctions read in
 
   number of l-projection  operators is LMAX  =            4
   number of lm-projection operators is LMMAX =            8
 
 POTCAR:    PAW_PBE O 08Apr2002                   
   VRHFIN =O: s2p4                                                                                  
   LEXCH  = PE                                                                                      
   EATOM  =   432.3788 eV,   31.7789 Ry                                                             
                                                                                                    
   TITEL  = PAW_PBE O 08Apr2002                                                                     
   LULTRA =        F    use ultrasoft PP ?                                                          
   IUNSCR =        1    unscreen: 0-lin 1-nonlin 2-no                                               
   RPACOR =    1.200    partial core radius                                                         
   POMASS =   16.000; ZVAL   =    6.000    mass and valenz                                          
   RCORE  =    1.520    outmost cutoff radius                                                       
   RWIGS  =    1.550; RWIGS  =    0.820    wigner-seitz radius (au A)                               
   ENMAX  =  400.000; ENMIN  =  300.000 eV                                                          
   ICORE  =        2    local potential                                                             
   LCOR   =        T    correct aug charges                                                         
   LPAW   =        T    paw PP                                                                      
   EAUG   =  605.392                                                                                
   DEXC   =    0.000                                                                                
   RMAX   =    1.553    core radius for proj-oper                                                   
   RAUG   =    1.300    factor for augmentation sphere                                              
   RDEP   =    1.550    radius for radial grids                                                     
   RDEPT  =    1.329    core radius for aug-charge                                                  
                                                                                                    
   Atomic configuration                                                                             
    4 entries                                                                                       
     n  l   j            E        occ.                                                              
     1  0  0.50      -514.6923   2.0000                                                             
     2  0  0.50       -23.9615   2.0000                                                             
     2  1  0.50        -9.0305   4.0000                                                             
     3  2  1.50        -9.5241   0.0000                                                             
   Description                                                                                      
     l       E           TYP  RCUT    TYP  RCUT                                                     
     0    -23.9615318     23  1.200                                                                 
     0     -9.5240782     23  1.200                                                                 
     1     -9.0304911     23  1.520                                                                 
     1      8.1634956     23  1.520                                                                 
     2     -9.5240782      7  1.500                                                                 
  local pseudopotential read in
  partial core-charges read in
  partial kinetic energy density read in
  kinetic energy density of atom read in
  atomic valenz-charges read in
  non local Contribution for L=            0  read in
    real space projection operators read in
  non local Contribution for L=            0  read in
    real space projection operators read in
  non local Contribution for L=            1  read in
    real space projection operators read in
  non local Contribution for L=            1  read in
    real space projection operators read in
    PAW grid and wavefunctions read in
 
   number of l-projection  operators is LMAX  =            4
   number of lm-projection operators is LMMAX =            8
 
 POTCAR:     PAW_PBE He 05Jan2001                 
   SHA256 =  767818bb8a862153b2ebc238b4abd4bed99a882bbb8e6a4800cddfa4f1a760c3 He/POTCAR             
   COPYR  = (c) Copyright 05Jan2001 Georg Kresse                                                    
   COPYR  = This file is part of the software VASP. Any use, copying, and all other rights are regul
   COPYR  = If you do not have a valid VASP license, you may not use, copy or distribute this file. 
   VRHFIN =He: 1s                                                                                   
   LEXCH  = PE                                                                                      
   EATOM  =    78.7251 eV,    5.7861 Ry                                                             
                                                                                                    
   TITEL  = PAW_PBE He 05Jan2001                                                                    
   LULTRA =        F    use ultrasoft PP ?                                                          
   IUNSCR =        0    unscreen: 0-lin 1-nonlin 2-no                                               
   RPACOR =    0.000    partial core radius                                                         
   POMASS =    4.000; ZVAL   =    2.000    mass and valenz                                          
   RCORE  =    1.100    outmost cutoff radius                                                       
   RWIGS  =    1.200; RWIGS  =    0.635    wigner-seitz radius (au A)                               
   ENMAX  =  478.896; ENMIN  =  359.172 eV                                                          
   RCLOC  =    0.703    cutoff for local pot                                                        
   LCOR   =        T    correct aug charges                                                         
   LPAW   =        T    paw PP                                                                      
   EAUG   = 1180.948                                                                                
   RMAX   =    1.121    core radius for proj-oper                                                   
   RAUG   =    1.200    factor for augmentation sphere                                              
   RDEP   =    1.110    radius for radial grids                                                     
   RDEPT  =    0.925    core radius for aug-charge                                                  
                                                                                                    
   Atomic configuration                                                                             
    2 entries                                                                                       
     n  l   j            E        occ.                                                              
     1  0  0.50       -15.7639   2.0000                                                             
     2  1  0.50        -2.8912   0.0000                                                             
   Description                                                                                      
     l       E           TYP  RCUT    TYP  RCUT                                                     
     0    -15.7638888     23  1.100                                                                 
     0      6.8029130     23  1.100                                                                 
     1     -6.8029130     23  1.100                                                                 
  local pseudopotential read in
  atomic valenz-charges read in
  non local Contribution for L=            0  read in
    real space projection operators read in
  non local Contribution for L=            0  read in
    real space projection operators read in
  non local Contribution for L=            1  read in
    real space projection operators read in
    PAW grid and wavefunctions read in
 
   number of l-projection  operators is LMAX  =            3
   number of lm-projection operators is LMMAX =            5
 
 Optimization of the real space projectors (new method)

 maximal supplied QI-value         = 18.90
 optimisation between [QCUT,QGAM] = [ 14.36, 28.91] = [ 57.76,234.09] Ry 
 Optimized for a Real-space Cutoff    1.10 Angstroem

   l    n(q)    QCUT    max X(q) W(low)/X(q) W(high)/X(q)  e(spline) 
   1      9    14.362     2.974    0.62E-04    0.42E-04    0.57E-07
   1      9    14.362     4.279    0.19E-03    0.11E-03    0.12E-06
   0     10    14.362    16.381    0.18E-03    0.39E-03    0.21E-06
   0     10    14.362     5.611    0.12E-03    0.27E-03    0.15E-06
   2      9    14.362     4.652    0.34E-03    0.73E-03    0.32E-06
 Optimization of the real space projectors (new method)

 maximal supplied QI-value         = 19.84
 optimisation between [QCUT,QGAM] = [ 14.48, 28.97] = [ 58.75,235.01] Ry 
 Optimized for a Real-space Cutoff    1.04 Angstroem

   l    n(q)    QCUT    max X(q) W(low)/X(q) W(high)/X(q)  e(spline) 
   0      9    14.485   159.560    0.42E-03    0.96E-04    0.18E-06
   0      9    14.485   115.863    0.41E-03    0.95E-04    0.18E-06
   1      8    14.485    88.339    0.18E-03    0.28E-03    0.12E-06
   1      8    14.485    48.592    0.17E-03    0.27E-03    0.12E-06
 Optimization of the real space projectors (new method)

 maximal supplied QI-value         = 24.76
 optimisation between [QCUT,QGAM] = [ 14.36, 28.96] = [ 57.73,234.92] Ry 
 Optimized for a Real-space Cutoff    0.95 Angstroem

   l    n(q)    QCUT    max X(q) W(low)/X(q) W(high)/X(q)  e(spline) 
   0      8    14.358    20.381    0.16E-03    0.34E-03    0.84E-07
   0      8    14.358    15.268    0.17E-03    0.36E-03    0.94E-07
   1      8    14.358     5.964    0.41E-03    0.21E-03    0.13E-06
   1      8    14.358     5.382    0.36E-03    0.17E-03    0.11E-06
 Optimization of the real space projectors (new method)

 maximal supplied QI-value         = 34.20
 optimisation between [QCUT,QGAM] = [ 14.37, 28.73] = [ 57.79,231.16] Ry 
 Optimized for a Real-space Cutoff    0.82 Angstroem

   l    n(q)    QCUT    max X(q) W(low)/X(q) W(high)/X(q)  e(spline) 
   0      7    14.366     9.826    0.34E-03    0.93E-03    0.11E-06
   0      7    14.366     7.016    0.36E-03    0.99E-03    0.12E-06
   1      6    14.366     3.196    0.20E-03    0.26E-03    0.11E-06
 -----------------------------------------------------------------------------
|                                                                             |
|               ----> ADVICE to this user running VASP <----                  |
|                                                                             |
|     You enforced a specific xc type in the INCAR file but a different       |
|     type was found in the POTCAR file.                                      |
|     I HOPE YOU KNOW WHAT YOU ARE DOING!                                     |
|                                                                             |
 -----------------------------------------------------------------------------

  PAW_PBE Mg_pv 13Apr2007               :
 energy of atom  1       EATOM=-1056.7344
 kinetic energy error for atom=    0.0032 (will be added to EATOM!!)
  PAW_PBE Si 05Jan2001                  :
 energy of atom  2       EATOM= -103.0669
 kinetic energy error for atom=    0.0002 (will be added to EATOM!!)
  PAW_PBE O 08Apr2002                   :
 energy of atom  3       EATOM= -432.3788
 kinetic energy error for atom=    0.0041 (will be added to EATOM!!)
   PAW_PBE He 05Jan2001                 :
 energy of atom  4       EATOM=  -78.7251
 kinetic energy error for atom=    0.0029 (will be added to EATOM!!)
 
 
 POSCAR: Mg71 Si71 O213 He5
  positions in cartesian coordinates
  No initial velocities read in


 exchange-correlation table for R2SCAN
   RHO(1)=    0.500       N(1)  =     2000
   RHO(2)=  100.500       N(2)  =     4000
 


--------------------------------------------------------------------------------------------------------


 ion  position               nearest neighbor table
   1  0.196  0.186  0.094- 165 1.85 147 2.00
   2  0.325  0.986  0.348- 218 1.92 224 2.02 209 2.21 100 2.41
   3  0.153  0.115  0.308- 151 2.00 224 2.13  75 2.63
   4  0.981  0.274  0.131- 293 1.88 171 1.89 143 2.13  72 2.52
   5  0.197  0.098  0.674- 160 1.86  78 2.75
   6  0.374  0.989  0.671- 279 1.93 230 2.20
   7  0.296  0.246  0.898- 164 1.98 149 2.10 102 2.72
   8  0.847  0.421  0.697- 298 1.67 179 2.14
   9  0.090  0.596  0.161- 315 1.81 317 2.08 172 2.16 196 2.25  93 2.51  91 2.67
  10  0.235  0.293  0.356- 174 1.71 161 1.91 145 2.21
  11  0.021  0.470  0.254- 190 1.79 317 2.18
  12  0.849  0.921  0.100- 333 1.72 195 2.16 121 2.82
  13  0.969  0.356  0.530- 144 1.88 184 2.03 316 2.25  86 2.72  84 2.77
  14  0.184  0.474  0.952- 156 1.93 323 1.97
  15  0.210  0.619  0.921- 173 1.79 156 2.00 180 2.02 323 2.12  89 2.41
  16  0.063  0.757  0.624- 207 1.89 206 2.05 348 2.21
  17  0.142  0.934  0.036- 202 2.02
  18  0.414  0.669  0.514- 278 1.54 265 2.18
  19  0.216  0.676  0.274- 200 1.88 168 1.93 196 2.01  43 2.44  91 2.78
  20  0.053  0.963  0.250- 341 1.85 213 1.85 192 2.12 146 2.25  75 2.55
  21  0.225  0.829  0.429- 198 1.83 209 1.94
  22  0.290  0.614  0.646- 278 1.85 187 2.20
  23  0.232  0.764  0.804- 211 1.91 208 2.03
  24  0.181  0.905  0.716- 158 1.57 208 1.88  79 2.63
  25  0.543  0.104  0.998- 275 1.81 225 2.11 285 2.11 228 2.17  97 2.48
  26  0.831  0.207  0.394- 295 2.01
  27  0.564  0.205  0.356- 334 2.00 223 2.14  99 2.67
  28  0.307  0.179  0.197- 154 1.94 176 2.16 147 2.19 219 2.25
  29  0.635  0.041  0.650- 229 1.86 103 2.76
  30  0.754  0.798  0.697- 349 2.03
  31  0.418  0.192  0.667- 157 1.85 253 2.15 237 2.20 109 2.73
  32  0.247  0.300  0.643- 182 2.06  87 2.70
  33  0.539  0.528  0.196- 313 1.98 241 2.07
  34  0.663  0.360  0.527- 245 1.99 286 2.06
  35  0.419  0.353  0.399- 222 2.09 248 2.11 215 2.15 107 2.78
  36  0.312  0.631  0.068- 173 1.85 194 1.98 175 2.06  89 2.57
  37  0.401  0.484  0.536- 266 1.84 261 2.03 248 2.15
  38  0.803  0.309  0.825- 303 1.80 302 2.01 325 2.14 126 2.75
  39  0.333  0.540  0.835- 227 1.65 156 1.92 105 2.28
  40  0.203  0.598  0.457- 185 1.77  95 2.83
  41  0.638  0.800  0.201- 336 1.97 205 2.14 338 2.16 138 2.76 113 2.79
  42  0.722  0.608  0.443- 240 1.86 343 1.89
  43  0.321  0.672  0.363- 200 1.69 265 1.82 198 1.96  19 2.44
  44  0.368  0.999  0.938- 210 1.70 197 2.06 281 2.17  73 2.58
  45  0.404  0.859  0.801- 281 1.89 279 1.94 118 2.83
  46  0.559  0.658  0.063- 249 1.71 354 1.96 251 2.16
  47  0.545  0.798  0.995- 276 2.02
  48  0.449  0.056  0.502- 226 2.03 270 2.09 284 2.11 237 2.15
  49  0.806  0.334  0.127- 167 1.76 296 2.11  82 2.77
  50  0.142  0.838  0.249- 213 1.93 262 2.15
  51  0.655  0.355  0.330- 286 1.72
  52  0.553  0.292  0.089- 214 2.07 290 2.11 122 2.56
  53  0.942  0.048  0.682- 159 1.63 300 2.08  78 2.09 350 2.14  71 2.42
  54  0.897  0.080  0.954- 346 1.85
  55  0.060  0.992  0.841- 347 1.73 202 1.98 159 2.13 305 2.14  78 2.79  88 2.79
  56  0.794  0.217  0.631- 294 1.94 234 2.10 319 2.11 303 2.20 133 2.76
  57  0.738  0.464  0.982- 252 1.81 309 2.03
  58  0.990  0.271  0.382- 144 2.10
  59  0.792  0.363  0.456- 316 1.84 286 1.95 294 2.10 287 2.15
  60  0.776  0.696  0.154- 338 1.86 314 2.04 322 2.23
  61  0.956  0.640  0.546- 340 1.96 206 2.03 141 2.70 142 2.78  95 2.82
  62  0.169  0.506  0.767- 156 2.06 183 2.18
  63  0.831  0.606  0.858- 329 1.95 331 2.21
  64  0.636  0.668  0.630- 239 1.90
  65  0.697  0.950  0.326- 336 1.91 342 2.09
  66  0.858  0.782  0.256- 310 2.13 195 2.18 138 2.73
  67  0.838  0.588  0.324- 327 1.87 310 2.01 141 2.73
  68  0.427  0.071  0.126- 219 1.74 285 2.09 199 2.18  98 2.56 112 2.74
  69  0.793  0.778  0.541- 337 1.78 349 2.07 140 2.44 141 2.73
  70  0.884  0.790  0.027- 191 1.89 195 2.00
  71  0.855  0.957  0.632- 350 1.85 355 1.99 300 2.05  53 2.42
  72  0.958  0.326  0.996- 143 1.46 299 1.56 304 1.76   4 2.52
  73  0.260  0.091  0.953- 165 1.46 197 1.70 204 1.76 162 1.94  44 2.58  98 2.97  79 3.03 102 3.14

  74  0.872  0.165  0.202- 148 1.53 288 1.56 293 1.63
  75  0.161  0.029  0.185- 146 1.60 147 1.76 192 1.78 152 1.83  20 2.55   3 2.63  98 3.07
  76  0.087  0.072  0.502- 153 1.62 166 1.62 292 1.73 155 1.97
  77  0.244  0.985  0.510- 150 1.60 209 1.62 153 1.79 226 2.12
  78  0.049  0.083  0.710- 159 1.62 155 1.70 305 1.81 308 1.85  53 2.09 160 2.46   5 2.75  55 2.79
                           135 2.99
  79  0.222  0.958  0.852- 208 1.64 158 1.68 204 1.80 210 1.98  24 2.63  73 3.03
  80  0.034  0.555  0.960- 323 1.47 178 1.52 328 1.68 358 1.90 291 2.15
  81  0.352  0.295  0.047- 154 1.49 149 1.63 214 1.80 170 1.85 104 2.92
  82  0.817  0.399  0.272- 312 1.55 167 1.56 311 1.56 287 1.78  49 2.77
  83  0.125  0.265  0.220- 176 1.57 151 1.63 171 1.68 189 1.72
  84  0.931  0.472  0.430- 316 1.52 177 1.62 327 1.72 311 2.42  13 2.77
  85  0.119  0.259  0.488- 144 1.60 161 1.72 166 1.84 182 1.93
  86  0.048  0.391  0.661- 183 1.61 184 1.63 188 1.72 179 1.79  13 2.72  87 3.11
  87  0.132  0.257  0.733- 160 1.52 330 1.61 163 1.61 188 1.64  32 2.70 135 2.79  86 3.11
  88  0.970  0.898  0.930- 191 1.54 306 1.60 212 1.87 347 1.98 202 2.03 127 2.78  55 2.79  94 2.83

  89  0.188  0.693  0.035- 194 1.68 180 1.69 315 1.72 173 2.31  15 2.41  36 2.57
  90  0.888  0.935  0.328- 342 1.57 335 1.64 341 1.70 351 1.73
  91  0.222  0.540  0.199- 175 1.49 169 1.71 168 1.73 172 1.84   9 2.67  19 2.78 106 3.08
  92  0.036  0.820  0.393- 201 1.50 203 1.79 213 1.90 335 2.08
  93  0.064  0.631  0.301- 190 1.55 196 1.70 168 2.22 201 2.32   9 2.51
  94  0.017  0.811  0.801- 207 1.68 347 1.74 352 1.97 212 2.16  88 2.83
  95  0.097  0.580  0.577- 206 1.59 187 1.61 185 1.61  61 2.82  40 2.83
  96  0.503  0.256  0.915- 225 1.39 220 1.73 214 2.34 228 2.38
  97  0.562  0.981  0.937- 275 1.68 268 1.74 233 1.85 345 2.19 360 2.25  25 2.48
  98  0.305  0.005  0.093- 197 1.48 152 1.54 219 1.56 199 1.67  68 2.56  73 2.97  75 3.07
  99  0.458  0.111  0.313- 223 1.41 217 1.68 270 1.72 218 1.73 357 2.23  27 2.67 122 2.82 100 2.91

 100  0.317  0.112  0.396- 224 1.55 145 1.78 226 1.89 218 2.15   2 2.41  99 2.91
 101  0.582  0.950  0.470- 280 1.47 284 1.47 269 1.71 263 1.82 140 2.64
 102  0.318  0.140  0.788- 157 1.47 230 1.66 164 1.69 162 2.01   7 2.72  73 3.14
 103  0.625  0.085  0.804- 235 1.53 229 1.62 231 1.65 275 2.21  29 2.76 126 2.85 111 3.11
 104  0.354  0.456  0.068- 186 1.57 170 1.60 260 1.84 238 2.03  81 2.92 106 2.97
 105  0.433  0.484  0.892- 227 1.55 260 1.63 257 1.74 181 1.97  39 2.28 128 3.08
 106  0.370  0.465  0.241- 169 1.48 242 1.71 238 1.71 243 2.04 107 2.73 104 2.97  91 3.08
 107  0.479  0.360  0.249- 241 1.53 242 1.53 290 1.65 222 1.75 106 2.73  35 2.78
 108  0.270  0.441  0.450- 248 1.66 261 1.69 174 1.75
 109  0.506  0.235  0.545- 232 1.62 237 1.67 215 1.87 253 1.89  31 2.73 124 3.08
 110  0.371  0.386  0.747- 181 1.50 250 1.67 254 1.69
 111  0.615  0.218  0.689- 253 1.66 259 1.71 216 1.85 231 1.97 234 2.11 134 2.93 103 3.11 124 3.14

 112  0.463  0.926  0.096- 236 1.48 199 1.60 233 1.76 205 2.34 283 2.45  68 2.74 113 3.04
 113  0.486  0.779  0.179- 205 1.46 267 1.60 273 1.61 249 2.12  41 2.79 114 2.88 112 3.04
 114  0.330  0.770  0.209- 267 1.48 200 1.63 262 1.68 194 2.55 113 2.88
 115  0.456  0.551  0.393- 247 1.56 265 1.63 243 1.67 266 1.99 246 2.20 130 2.38
 116  0.403  0.837  0.508- 272 1.72 193 1.77 274 1.87 118 2.83
 117  0.556  0.831  0.615- 277 1.52 239 1.52 272 1.64 269 1.81
 118  0.345  0.805  0.658- 274 1.69 279 1.71 282 1.71 211 2.00 116 2.83  45 2.83 119 3.03
 119  0.441  0.671  0.689- 258 1.44 255 1.73 282 1.83 278 2.22 118 3.03
 120  0.709  0.198  0.999- 296 1.72 307 1.79 228 1.86 302 2.46
 121  0.750  0.042  0.100- 333 1.50 339 1.80 346 2.04 307 2.10  12 2.82 136 2.88
 122  0.518  0.187  0.184- 289 1.55 285 1.73 223 1.79 290 1.89 217 2.19  52 2.56  99 2.82
 123  0.703  0.145  0.262- 334 1.57 339 1.85 288 2.08 289 2.33
 124  0.669  0.196  0.516- 221 1.48 232 1.51 297 1.60 216 1.82 109 3.08 111 3.14
 125  0.916  0.049  0.467- 295 1.52 351 1.52 292 1.68 300 1.72
 126  0.762  0.162  0.822- 301 1.56 302 1.63 235 1.79 234 1.88  38 2.75 103 2.85
 127  0.861  0.914  0.816- 350 1.77 306 1.79 352 1.85 353 1.90 359 2.25  88 2.78
 128  0.562  0.466  0.008- 251 1.46 252 1.68 244 1.70 257 1.73 105 3.08
 129  0.911  0.452  0.878- 331 1.57 298 1.72 304 1.78 291 1.86
 130  0.584  0.568  0.365- 240 1.55 246 1.56 247 1.61 115 2.38
 131  0.715  0.498  0.163- 313 1.50 309 1.67 318 2.01 312 2.31
 132  0.694  0.496  0.625- 256 1.61 332 1.65 321 1.66 245 1.94 134 2.74
 133  0.918  0.211  0.725- 308 1.62 319 1.66 324 1.67 303 1.78 301 2.42 135 2.51  56 2.76
 134  0.657  0.373  0.711- 245 1.53 325 1.69 259 1.76 321 2.39 132 2.74 111 2.93
 135  0.018  0.203  0.827- 330 1.55 324 1.69 308 1.85 305 2.13 133 2.51  87 2.79  78 2.99
 136  0.708  0.912  0.012- 276 1.63 344 1.72 333 1.78 268 1.93 121 2.88
 137  0.714  0.671  0.993- 322 1.76 320 1.76 354 1.78
 138  0.725  0.775  0.331- 338 1.66 271 1.68 264 2.04 336 2.05  66 2.73  41 2.76
 139  0.896  0.582  0.139- 318 1.62 314 1.68 317 1.74
 140  0.699  0.868  0.501- 337 1.68 280 1.79 355 2.03 269 2.04 264 2.08  69 2.44 101 2.64
 141  0.867  0.695  0.433- 340 1.44 343 1.70 310 1.72  61 2.70  69 2.73  67 2.73
 142  0.880  0.658  0.686- 326 1.55 329 1.57 348 1.73 349 1.74  61 2.78
 143  0.921  0.356  0.066-  72 1.46   4 2.13
 144  0.034  0.281  0.496-  85 1.60  13 1.88  58 2.10
 145  0.319  0.203  0.357- 100 1.78  10 2.21
 146  0.087  0.014  0.135-  75 1.60  20 2.25
 147  0.203  0.117  0.185-  75 1.76   1 2.00  28 2.19
 148  0.899  0.159  0.287-  74 1.53
 149  0.310  0.336  0.974-  81 1.63   7 2.10
 150  0.231  0.946  0.593-  77 1.60
 151  0.089  0.200  0.275-  83 1.63   3 2.00
 152  0.236  0.977  0.137-  98 1.54  75 1.83
 153  0.163  0.033  0.475-  76 1.62  77 1.79
 154  0.323  0.246  0.110-  81 1.49  28 1.94
 155  0.078  0.088  0.615-  78 1.70  76 1.97
 156  0.232  0.523  0.866-  39 1.92  14 1.93  15 2.00  62 2.06
 157  0.377  0.192  0.765- 102 1.47  31 1.85
 158  0.171  0.973  0.772-  24 1.57  79 1.68
 159  0.008  0.006  0.731-  78 1.62  53 1.63  55 2.13
 160  0.141  0.183  0.692-  87 1.52   5 1.86  78 2.46
 161  0.137  0.298  0.398-  85 1.72  10 1.91
 162  0.350  0.118  0.898-  73 1.94 102 2.01
 163  0.197  0.305  0.772-  87 1.61
 164  0.243  0.190  0.815- 102 1.69   7 1.98
 165  0.213  0.142  0.998-  73 1.46   1 1.85
 166  0.093  0.161  0.499-  76 1.62  85 1.84
 167  0.863  0.373  0.200-  82 1.56  49 1.76
 168  0.173  0.578  0.277-  91 1.73  19 1.93  93 2.22
 169  0.303  0.512  0.241- 106 1.48  91 1.71
 170  0.338  0.378  0.109- 104 1.60  81 1.85
 171  0.085  0.268  0.132-  83 1.68   4 1.89
 172  0.136  0.487  0.183-  91 1.84   9 2.16
 173  0.291  0.657  0.965-  15 1.79  36 1.85  89 2.31
 174  0.254  0.384  0.368-  10 1.71 108 1.75
 175  0.236  0.608  0.154-  91 1.49  36 2.06
 176  0.210  0.249  0.210-  83 1.57  28 2.16
 177  0.970  0.417  0.368-  84 1.62
 178  0.989  0.495  0.000- 358 0.97  80 1.52
 179  0.950  0.373  0.663-  86 1.79   8 2.14
 180  0.151  0.711  0.946-  89 1.69  15 2.02
 181  0.400  0.400  0.828- 110 1.50 105 1.97
 182  0.217  0.270  0.531-  85 1.93  32 2.06
 183  0.071  0.465  0.707-  86 1.61  62 2.18
 184  0.054  0.420  0.571-  86 1.63  13 2.03
 185  0.129  0.546  0.497-  95 1.61  40 1.77
 186  0.272  0.475  0.046- 104 1.57
 187  0.172  0.587  0.627-  95 1.61  22 2.20
 188  0.108  0.317  0.665-  87 1.64  86 1.72
 189  0.108  0.348  0.265-  83 1.72
 190  0.037  0.550  0.312-  93 1.55  11 1.79
 191  0.943  0.876  0.012-  88 1.54  70 1.89
 192  0.166  0.981  0.275-  75 1.78  20 2.12
 193  0.416  0.781  0.424- 116 1.77
 194  0.258  0.724  0.090-  89 1.68  36 1.98 114 2.55
 195  0.895  0.817  0.140-  70 2.00  12 2.16  66 2.18
 196  0.110  0.692  0.242-  93 1.70  19 2.01   9 2.25
 197  0.280  0.018  0.012-  98 1.48  73 1.70  44 2.06
 198  0.238  0.735  0.392-  21 1.83  43 1.96
 199  0.388  0.969  0.073- 112 1.60  98 1.67  68 2.18
 200  0.317  0.701  0.269- 114 1.63  43 1.69  19 1.88
 201  0.059  0.745  0.363-  92 1.50  93 2.32
 202  0.071  0.946  0.946-  55 1.98  17 2.02  88 2.03
 203  0.105  0.851  0.459-  92 1.79
 204  0.203  0.053  0.880-  73 1.76  79 1.80
 205  0.538  0.829  0.141- 113 1.46  41 2.14 112 2.34
 206  0.066  0.661  0.561-  95 1.59  61 2.03  16 2.05
 207  0.070  0.807  0.721-  94 1.68  16 1.89
 208  0.220  0.875  0.813-  79 1.64  24 1.88  23 2.03
 209  0.247  0.935  0.432-  77 1.62  21 1.94   2 2.21
 210  0.325  0.997  0.849-  44 1.70  79 1.98
 211  0.250  0.759  0.694-  23 1.91 118 2.00
 212  0.971  0.796  0.917-  88 1.87  94 2.16
 213  0.077  0.889  0.321-  20 1.85  92 1.90  50 1.93
 214  0.450  0.287  0.035-  81 1.80  52 2.07  96 2.34
 215  0.492  0.326  0.494- 109 1.87  35 2.15
 216  0.665  0.254  0.602- 124 1.82 111 1.85
 217  0.501  0.077  0.233- 357 1.15  99 1.68 122 2.19
 218  0.375  0.066  0.297-  99 1.73   2 1.92 100 2.15
 219  0.332  0.084  0.116-  98 1.56  68 1.74  28 2.25
 220  0.533  0.338  0.873-  96 1.73
 221  0.693  0.229  0.441- 124 1.48
 222  0.511  0.317  0.335- 107 1.75  35 2.09
 223  0.476  0.180  0.278-  99 1.41 122 1.79  27 2.14
 224  0.251  0.070  0.358- 100 1.55   2 2.02   3 2.13
 225  0.479  0.194  0.956-  96 1.39  25 2.11
 226  0.342  0.037  0.469- 100 1.89  48 2.03  77 2.12
 227  0.424  0.544  0.827- 105 1.55  39 1.65
 228  0.607  0.204  0.980- 120 1.86  25 2.17  96 2.38
 229  0.621  0.010  0.753- 103 1.62  29 1.86
 230  0.329  0.099  0.702- 102 1.66   6 2.20
 231  0.570  0.146  0.762- 103 1.65 111 1.97
 232  0.586  0.203  0.521- 124 1.51 109 1.62
 233  0.503  0.985  0.026- 112 1.76  97 1.85
 234  0.725  0.204  0.729- 126 1.88  56 2.10 111 2.11
 235  0.674  0.132  0.859- 103 1.53 126 1.79
 236  0.481  0.956  0.175- 357 1.46 112 1.48
 237  0.441  0.168  0.542- 109 1.67  48 2.15  31 2.20
 238  0.415  0.495  0.159- 106 1.71 104 2.03
 239  0.612  0.771  0.635- 117 1.52  64 1.90
 240  0.664  0.598  0.354- 130 1.55  42 1.86
 241  0.538  0.422  0.243- 107 1.53  33 2.07
 242  0.397  0.376  0.262- 107 1.53 106 1.71
 243  0.396  0.491  0.354- 115 1.67 106 2.04
 244  0.505  0.415  0.065- 128 1.70
 245  0.638  0.405  0.630- 134 1.53 132 1.94  34 1.99
 246  0.529  0.604  0.306- 130 1.56 115 2.20
 247  0.527  0.502  0.384- 115 1.56 130 1.61
 248  0.342  0.393  0.483- 108 1.66  35 2.11  37 2.15
 249  0.481  0.678  0.116-  46 1.71 113 2.12
 250  0.285  0.406  0.719- 110 1.67
 251  0.566  0.540  0.042- 128 1.46  46 2.16
 252  0.644  0.429  0.983- 128 1.68  57 1.81
 253  0.535  0.202  0.645- 111 1.66 109 1.89  31 2.15
 254  0.374  0.331  0.667- 110 1.69
 255  0.369  0.637  0.745- 119 1.73
 256  0.673  0.544  0.549- 132 1.61
 257  0.524  0.463  0.915- 128 1.73 105 1.74
 258  0.521  0.669  0.683- 119 1.44
 259  0.592  0.302  0.728- 111 1.71 134 1.76
 260  0.390  0.491  0.975- 105 1.63 104 1.84
 261  0.296  0.513  0.506- 108 1.69  37 2.03
 262  0.255  0.826  0.213- 114 1.68  50 2.15
 263  0.572  0.943  0.364- 356 1.07 101 1.82
 264  0.776  0.835  0.417- 138 2.04 140 2.08
 265  0.405  0.625  0.396- 115 1.63  43 1.82  18 2.18
 266  0.487  0.529  0.503-  37 1.84 115 1.99
 267  0.399  0.782  0.165- 114 1.48 113 1.60
 268  0.657  0.988  0.954-  97 1.74 136 1.93
 269  0.588  0.870  0.523- 101 1.71 117 1.81 140 2.04
 270  0.491  0.115  0.407-  99 1.72  48 2.09
 271  0.667  0.722  0.384- 138 1.68
 272  0.474  0.826  0.574- 117 1.64 116 1.72
 273  0.533  0.743  0.250- 113 1.61
 274  0.338  0.869  0.586- 118 1.69 116 1.87
 275  0.545  0.066  0.900-  97 1.68  25 1.81 103 2.21
 276  0.627  0.873  0.009- 136 1.63  47 2.02
 277  0.536  0.900  0.660- 117 1.52
 278  0.372  0.642  0.587-  18 1.54  22 1.85 119 2.22
 279  0.356  0.889  0.704- 118 1.71   6 1.93  45 1.94
 280  0.663  0.953  0.464- 101 1.47 140 1.79
 281  0.441  0.938  0.861- 360 1.72 345 1.81  45 1.89  44 2.17
 282  0.426  0.771  0.697- 118 1.71 119 1.83
 283  0.421  0.860  0.979- 112 2.45
 284  0.534  0.982  0.531- 101 1.47  48 2.11
 285  0.491  0.161  0.091- 122 1.73  68 2.09  25 2.11
 286  0.694  0.387  0.415-  51 1.72  59 1.95  34 2.06
 287  0.845  0.336  0.347-  82 1.78  59 2.15
 288  0.794  0.201  0.217-  74 1.56 123 2.08
 289  0.600  0.202  0.206- 122 1.55 123 2.33
 290  0.488  0.288  0.191- 107 1.65 122 1.89  52 2.11
 291  0.008  0.485  0.863- 129 1.86  80 2.15
 292  0.007  0.031  0.464- 125 1.68  76 1.73
 293  0.935  0.181  0.137-  74 1.63   4 1.88
 294  0.782  0.297  0.556-  56 1.94  59 2.10
 295  0.866  0.114  0.446- 125 1.52  26 2.01
 296  0.753  0.275  0.036- 120 1.72  49 2.11
 297  0.693  0.127  0.569- 124 1.60
 298  0.886  0.447  0.781-   8 1.67 129 1.72
 299  0.966  0.245  0.965-  72 1.56
 300  0.919  0.025  0.565- 125 1.72  71 2.05  53 2.08
 301  0.820  0.129  0.765- 126 1.56 133 2.42
 302  0.795  0.216  0.890- 126 1.63  38 2.01 120 2.46
 303  0.840  0.270  0.736- 133 1.78  38 1.80  56 2.20
 304  0.908  0.360  0.915-  72 1.76 129 1.78
 305  0.081  0.105  0.808-  78 1.81 135 2.13  55 2.14
 306  0.902  0.949  0.904-  88 1.60 127 1.79
 307  0.679  0.129  0.068- 120 1.79 121 2.10
 308  0.999  0.172  0.726- 133 1.62 135 1.85  78 1.85
 309  0.738  0.434  0.096- 131 1.67  57 2.03
 310  0.879  0.692  0.333- 141 1.72  67 2.01  66 2.13
 311  0.833  0.461  0.334-  82 1.56  84 2.42
 312  0.740  0.393  0.235-  82 1.55 131 2.31
 313  0.648  0.536  0.196- 131 1.50  33 1.98
 314  0.876  0.658  0.192- 139 1.68  60 2.04
 315  0.112  0.665  0.088-  89 1.72   9 1.81
 316  0.878  0.417  0.468-  84 1.52  59 1.84  13 2.25
 317  0.982  0.557  0.174- 139 1.74   9 2.08  11 2.18
 318  0.813  0.553  0.156- 139 1.62 131 2.01
 319  0.894  0.159  0.649- 133 1.66  56 2.11
 320  0.662  0.597  0.952- 137 1.76
 321  0.649  0.505  0.709- 132 1.66 134 2.39
 322  0.802  0.655  0.034- 137 1.76  60 2.23
 323  0.116  0.558  0.956-  80 1.47  14 1.97  15 2.12
 324  0.924  0.209  0.822- 133 1.67 135 1.69
 325  0.733  0.386  0.767- 134 1.69  38 2.14
 326  0.886  0.579  0.650- 142 1.55
 327  0.904  0.560  0.404-  84 1.72  67 1.87
 328  0.992  0.623  0.910-  80 1.68
 329  0.845  0.672  0.769- 142 1.57  63 1.95
 330  0.080  0.260  0.809- 135 1.55  87 1.61
 331  0.865  0.509  0.928- 129 1.57  63 2.21
 332  0.759  0.442  0.588- 132 1.65
 333  0.768  0.965  0.073- 121 1.50  12 1.72 136 1.78
 334  0.663  0.156  0.343- 123 1.57  27 2.00
 335  0.933  0.863  0.363-  90 1.64  92 2.08
 336  0.653  0.857  0.298- 356 1.71  65 1.91  41 1.97 138 2.05
 337  0.696  0.789  0.553- 140 1.68  69 1.78
 338  0.738  0.746  0.240- 138 1.66  60 1.86  41 2.16
 339  0.733  0.068  0.199- 121 1.80 123 1.85
 340  0.921  0.726  0.487- 141 1.44  61 1.96
 341  0.959  0.984  0.288-  90 1.70  20 1.85
 342  0.810  0.961  0.300-  90 1.57  65 2.09
 343  0.812  0.640  0.489- 141 1.70  42 1.89
 344  0.795  0.887  0.980- 136 1.72
 345  0.514  0.877  0.894- 360 1.04 281 1.81  97 2.19
 346  0.845  0.079  0.047-  54 1.85 121 2.04
 347  0.034  0.900  0.836-  55 1.73  94 1.74  88 1.98
 348  0.963  0.702  0.670- 142 1.73  16 2.21
 349  0.821  0.723  0.644- 142 1.74  30 2.03  69 2.07
 350  0.863  0.977  0.738- 127 1.77  71 1.85  53 2.14
 351  0.887  0.998  0.403- 125 1.52  90 1.73
 352  0.920  0.847  0.763- 127 1.85  94 1.97
 353  0.760  0.883  0.808- 359 1.25 127 1.90
 354  0.646  0.720  0.048- 137 1.78  46 1.96
 355  0.783  0.926  0.551-  71 1.99 140 2.03
 356  0.574  0.888  0.341- 263 1.07 336 1.71
 357  0.481  0.017  0.232- 217 1.15 236 1.46  99 2.23
 358  0.989  0.518  0.052- 178 0.97  80 1.90
 359  0.757  0.915  0.744- 353 1.25 127 2.25
 360  0.528  0.902  0.841- 345 1.04 281 1.72  97 2.25
 

IMPORTANT INFORMATION: All symmetrisations will be switched off!
NOSYMM: (Re-)initialisation of all symmetry stuff for point group C_1.


----------------------------------------------------------------------------------------

                                     Primitive cell                                     

  volume of cell :    5566.8871

  direct lattice vectors                    reciprocal lattice vectors
    18.041978398  0.000000000  0.000000000     0.055426294  0.000000000  0.000000000
     0.000000000 18.041978398  0.000000000     0.000000000  0.055426294  0.000000000
     0.000000000  0.000000000 17.101889588     0.000000000  0.000000000  0.058473071

  length of vectors
    18.041978398 18.041978398 17.101889588     0.055426294  0.055426294  0.058473071

  position of ions in fractional coordinates (direct lattice)
     0.196498916  0.185688017  0.093672093
     0.324979837  0.986354645  0.348458266
     0.152784918  0.114560164  0.308289605
     0.980551512  0.274304685  0.131039835
     0.196932904  0.098327476  0.674261445
     0.374261018  0.989486231  0.670882287
     0.295687041  0.246480685  0.897815690
     0.847012942  0.420571904  0.697498644
     0.089676429  0.596078155  0.161327424
     0.234617796  0.292523862  0.356018834
     0.021456583  0.470150724  0.253571091
     0.849152397  0.920724370  0.099615179
     0.969355401  0.356470840  0.529854596
     0.184456445  0.473795002  0.952137172
     0.210358261  0.618758595  0.920561714
     0.063169414  0.757272229  0.623939521
     0.141753257  0.933949084  0.035941923
     0.414323143  0.669077910  0.514272107
     0.215867080  0.676277786  0.274475213
     0.052765788  0.963347190  0.250286658
     0.225346639  0.829187846  0.429362776
     0.290086768  0.614141584  0.645669868
     0.231623667  0.763596369  0.803574641
     0.181225092  0.904706171  0.716063844
     0.542783556  0.104156327  0.997617527
     0.830933774  0.207153513  0.394195317
     0.564338288  0.205202507  0.356239278
     0.307135342  0.178882223  0.197295438
     0.635318309  0.041344091  0.650103296
     0.753675063  0.797899703  0.697007470
     0.418195224  0.192218343  0.666501484
     0.247246122  0.299962625  0.643026301
     0.538612173  0.527899934  0.196313675
     0.663105173  0.359737112  0.527407498
     0.418727317  0.353417960  0.398736336
     0.312430216  0.630924666  0.067932072
     0.400994782  0.484288308  0.535863873
     0.803458960  0.308625755  0.825028411
     0.333231149  0.540188497  0.835389839
     0.202774835  0.598351187  0.456596609
     0.638019232  0.800183266  0.201136534
     0.722043277  0.607912777  0.442764219
     0.321361054  0.671727287  0.363174184
     0.367916370  0.999080522  0.937565683
     0.403548272  0.858707890  0.800908269
     0.558512984  0.657727159  0.062832577
     0.544531147  0.797617029  0.995383855
     0.448623151  0.056008780  0.502425463
     0.806302329  0.333561490  0.126772295
     0.141581934  0.838493920  0.248623684
     0.655004620  0.354793086  0.329973759
     0.553175432  0.291571638  0.088605811
     0.942035780  0.047504169  0.682062923
     0.897035172  0.079870243  0.954306523
     0.059951031  0.992457080  0.841418413
     0.793881296  0.216718428  0.631442785
     0.738316437  0.463885890  0.981794714
     0.989735649  0.271343258  0.382348673
     0.792301647  0.363039410  0.455848738
     0.775557364  0.695732415  0.153804045
     0.955936695  0.640492353  0.546255707
     0.168541893  0.506245989  0.767432436
     0.830872805  0.606090915  0.857972139
     0.635738994  0.668224345  0.629733617
     0.697018305  0.949823175  0.325739724
     0.858436301  0.781842705  0.255752136
     0.837884231  0.588137230  0.324491909
     0.427092807  0.070797236  0.126364153
     0.793277150  0.777824299  0.541371452
     0.884143016  0.790467037  0.026882690
     0.855143979  0.956612896  0.632364906
     0.957649367  0.326432560  0.996260952
     0.259685446  0.091148662  0.953265703
     0.871672100  0.164744028  0.202146364
     0.161128017  0.028793915  0.184514394
     0.086869143  0.071530526  0.501967619
     0.244049688  0.985368057  0.510178992
     0.048934168  0.083472564  0.710122980
     0.222336437  0.958164832  0.852311946
     0.034415250  0.554993415  0.960253235
     0.351818357  0.295327324  0.047456440
     0.817254565  0.399486633  0.272454384
     0.125216268  0.264595107  0.220475917
     0.931410560  0.471646125  0.430227593
     0.119013899  0.259485911  0.487879702
     0.047785735  0.391111165  0.660553019
     0.131554265  0.257125859  0.732541555
     0.970120284  0.898404202  0.930010962
     0.188057491  0.692977728  0.035247263
     0.888178050  0.934802649  0.327801484
     0.221635295  0.539574374  0.199436722
     0.035786497  0.819859600  0.392893707
     0.064382806  0.631237271  0.300669395
     0.017033010  0.811379377  0.801487153
     0.097090139  0.579754557  0.577014881
     0.503333337  0.256058349  0.914661781
     0.561792004  0.980667907  0.936975105
     0.305375003  0.004526621  0.093039064
     0.458077768  0.111145244  0.312835302
     0.317155861  0.111818132  0.395891621
     0.581716648  0.949828717  0.469622655
     0.318201201  0.140066469  0.787938942
     0.624973545  0.084773253  0.804387417
     0.354357990  0.455803627  0.068371439
     0.433341567  0.484277223  0.891705254
     0.370011484  0.464569850  0.241261340
     0.479350934  0.360422735  0.249436460
     0.269681023  0.440850168  0.449916645
     0.505598610  0.235055109  0.544654130
     0.371260238  0.385958737  0.746984404
     0.615348215  0.217874621  0.689200730
     0.463210243  0.926073008  0.096320689
     0.486373446  0.778821972  0.179497405
     0.329660033  0.770341749  0.209343229
     0.456267545  0.550589796  0.393030534
     0.402979044  0.837208030  0.507936550
     0.556368541  0.830911603  0.614758079
     0.345136163  0.805415508  0.657975526
     0.441303555  0.671311590  0.689426436
     0.708818563  0.197801988  0.999301551
     0.750482508  0.041633971  0.099599450
     0.518155991  0.187461659  0.183632620
     0.702982174  0.145295496  0.262197623
     0.669260817  0.195663088  0.516309309
     0.915891197  0.049273377  0.467386060
     0.761656449  0.162313086  0.822438054
     0.860958197  0.913651975  0.816356855
     0.562380631  0.465834678  0.008144994
     0.910731009  0.452005263  0.878028402
     0.584179793  0.568333969  0.365085084
     0.715497431  0.498268483  0.162566351
     0.693881177  0.496090229  0.625051094
     0.918413094  0.211403047  0.724828957
     0.656828145  0.373330965  0.711064396
     0.017825052  0.202829153  0.827004801
     0.707987168  0.912166550  0.012187238
     0.713917782  0.670818296  0.993389924
     0.725252459  0.774875620  0.331263090
     0.895732654  0.582243752  0.139209985
     0.699329581  0.867664779  0.501088769
     0.867437531  0.695355516  0.432810933
     0.879531549  0.657665636  0.686042015
     0.921278633  0.355894407  0.065841192
     0.033512910  0.281353801  0.495713924
     0.318508263  0.203493714  0.357370732
     0.086851850  0.013931355  0.135390232
     0.203279215  0.116893744  0.184743024
     0.898908581  0.158809701  0.286873843
     0.310372791  0.336251882  0.974374481
     0.231194113  0.946181667  0.592921896
     0.089344925  0.199752440  0.275292667
     0.236242340  0.977464267  0.137462927
     0.163350500  0.032658237  0.474799276
     0.322817657  0.246123740  0.110160066
     0.077891469  0.087759843  0.615358598
     0.232121395  0.523001358  0.865719821
     0.376798988  0.192232200  0.765444352
     0.170563290  0.972597839  0.772256465
     0.007917047  0.006306359  0.730740585
     0.140715954  0.182865156  0.692062402
     0.137008766  0.298264918  0.398218265
     0.349754282  0.117546211  0.897862468
     0.196904637  0.304932146  0.772022572
     0.243336352  0.190273989  0.815327729
     0.212974382  0.141960773  0.997559054
     0.092847090  0.161301889  0.498667983
     0.862670870  0.373145287  0.199931404
     0.173305783  0.578184885  0.277107086
     0.303316470  0.512304083  0.241068963
     0.337878644  0.378121459  0.109357535
     0.085338324  0.268313102  0.131583109
     0.135665066  0.487241421  0.183268918
     0.291255154  0.656978350  0.965416407
     0.254318518  0.384318673  0.368041482
     0.235638194  0.608489211  0.153558575
     0.210380431  0.248570257  0.209639688
     0.970081485  0.416826749  0.367615214
     0.988743518  0.495204517  0.000462218
     0.950460577  0.373080438  0.662734064
     0.151394938  0.711052242  0.946371728
     0.399552036  0.399714989  0.827981301
     0.217096990  0.270048500  0.530991312
     0.070562395  0.464878575  0.707380593
     0.054236801  0.419855242  0.570522032
     0.129473063  0.545588127  0.496902681
     0.272384718  0.475390171  0.045746687
     0.172343029  0.587434979  0.627135074
     0.108084000  0.317363710  0.665354827
     0.108395629  0.348437353  0.265418904
     0.037487530  0.550467858  0.312442948
     0.943255159  0.876028607  0.012372013
     0.166466567  0.980723334  0.275278633
     0.415816882  0.781172047  0.423878587
     0.258499323  0.723988740  0.090406138
     0.894723896  0.817005146  0.139723437
     0.109789179  0.692417922  0.241891095
     0.280231973  0.018138765  0.012205949
     0.237644071  0.734940975  0.392047601
     0.388464006  0.968540634  0.072558403
     0.317150873  0.701330471  0.269352388
     0.058647238  0.745028561  0.363243767
     0.070839859  0.945937791  0.945529715
     0.105431741  0.851053519  0.459400978
     0.203347943  0.052796826  0.879583786
     0.538255782  0.828855288  0.140813317
     0.065862855  0.660793896  0.560892686
     0.070484853  0.806673685  0.721273794
     0.219759669  0.874942251  0.813205156
     0.247017212  0.934608657  0.431986463
     0.325045794  0.997412191  0.849119316
     0.250366068  0.758774282  0.693984997
     0.971140127  0.795560713  0.916679102
     0.076644156  0.889109212  0.320939085
     0.450351897  0.287499468  0.035255449
     0.491623424  0.325679871  0.493978443
     0.664721403  0.254427707  0.602407397
     0.500752689  0.077260163  0.233375661
     0.374823040  0.066266413  0.296778597
     0.331849372  0.083829066  0.116096592
     0.533413187  0.337906912  0.873192680
     0.692922302  0.229023065  0.441249182
     0.510706697  0.317466803  0.334728789
     0.475737140  0.179648214  0.277944421
     0.250938622  0.069765531  0.358493415
     0.479123132  0.193740349  0.955604625
     0.342228500  0.037443189  0.469132066
     0.424035493  0.543673148  0.826601337
     0.607494309  0.204268020  0.979730614
     0.620939619  0.009764960  0.752591971
     0.328691736  0.098762351  0.701925055
     0.570337630  0.146173005  0.762386210
     0.586292643  0.203263695  0.521057322
     0.503479108  0.984547748  0.025743050
     0.724991955  0.204195411  0.729436635
     0.673534184  0.131646716  0.858638732
     0.480868506  0.956479873  0.174800263
     0.440966563  0.168469839  0.542352045
     0.415309731  0.494859765  0.159226954
     0.612149009  0.770546827  0.634619042
     0.664220904  0.597623440  0.353661200
     0.537505865  0.421721999  0.242539561
     0.396666543  0.375825148  0.262029220
     0.395738707  0.490958863  0.354323115
     0.504842041  0.414741057  0.065310373
     0.637573050  0.404728852  0.630425354
     0.528580569  0.603879960  0.306212057
     0.527300775  0.501727638  0.383743841
     0.342406972  0.393419671  0.482548712
     0.480819731  0.678018171  0.116455307
     0.284808522  0.406143885  0.719449435
     0.566096964  0.539966792  0.042102645
     0.644456442  0.428968987  0.982882313
     0.535290476  0.202212258  0.644705647
     0.374114692  0.330800706  0.667034759
     0.368690675  0.637313101  0.745376394
     0.672797014  0.543637676  0.548554868
     0.524461841  0.463181976  0.915293290
     0.520916221  0.669371669  0.683252265
     0.592071943  0.302349835  0.728062518
     0.390039221  0.490693925  0.974842266
     0.295912626  0.513395427  0.505887653
     0.255294020  0.826011919  0.212651051
     0.572324663  0.942811748  0.363943689
     0.775928720  0.835245940  0.416743118
     0.405017623  0.624636553  0.395834318
     0.487372782  0.528592762  0.502504986
     0.398984471  0.782286116  0.164746520
     0.656851424  0.988311193  0.953949838
     0.588101757  0.870014854  0.523295087
     0.490780945  0.114851119  0.407126052
     0.666816517  0.721899168  0.383777755
     0.474276103  0.825906609  0.573555030
     0.532732552  0.742994416  0.250132874
     0.337840954  0.869078149  0.586058911
     0.545461201  0.065653620  0.900207238
     0.626677904  0.872686401  0.009082318
     0.536079746  0.900116874  0.660222646
     0.371634920  0.642315878  0.586870518
     0.356290705  0.888610375  0.703883903
     0.663111824  0.952893791  0.464199862
     0.441407202  0.937873266  0.860849014
     0.425582995  0.771178686  0.697147805
     0.420826310  0.860315252  0.979251135
     0.534445779  0.981776433  0.531307067
     0.490762100  0.161369066  0.090531329
     0.694174936  0.387203612  0.415354383
     0.844618526  0.335641085  0.346647940
     0.794385676  0.200945213  0.216654702
     0.600184135  0.202391840  0.206220183
     0.488128796  0.287797108  0.191196112
     0.007627168  0.484749455  0.863018365
     0.007177661  0.031451606  0.464076484
     0.935406796  0.180612077  0.136970174
     0.782042240  0.296520098  0.556194375
     0.866062959  0.113641783  0.445601333
     0.753043203  0.274697103  0.035831409
     0.693448852  0.127046167  0.569407535
     0.886160533  0.447159897  0.781109288
     0.965935598  0.245411512  0.965229293
     0.919094837  0.025242198  0.564908032
     0.820369522  0.128704411  0.765485283
     0.795233698  0.216119270  0.890056313
     0.840289732  0.270326740  0.735757574
     0.907915354  0.360200476  0.915304985
     0.081039461  0.104686424  0.807679451
     0.901663268  0.949313253  0.904002140
     0.679470340  0.128815762  0.068230168
     0.998847732  0.171927331  0.726033502
     0.737784344  0.434230605  0.096266309
     0.878866433  0.691580985  0.333328944
     0.833477841  0.461179978  0.334179727
     0.739657753  0.392702454  0.234686043
     0.648294713  0.535877994  0.196067503
     0.875806902  0.658436062  0.191955677
     0.111911816  0.664613322  0.087561891
     0.877613799  0.417356070  0.468071364
     0.982236471  0.556590800  0.174310258
     0.812543330  0.552844537  0.156291138
     0.894180718  0.159210710  0.648871269
     0.662303154  0.597498177  0.952470469
     0.648598449  0.505302079  0.708988602
     0.802150899  0.655083325  0.033697726
     0.115748066  0.558336174  0.956405707
     0.924443475  0.208932697  0.822461443
     0.732912373  0.386137764  0.766871095
     0.886343440  0.579175907  0.649724391
     0.903769467  0.559526731  0.403617668
     0.991864019  0.622855152  0.909650639
     0.845111820  0.672109728  0.768946889
     0.079926833  0.260010798  0.809047721
     0.865015402  0.508916982  0.927648650
     0.759012615  0.442224740  0.587824798
     0.768235550  0.964655251  0.073150267
     0.662919494  0.155809310  0.343107395
     0.932713078  0.863158621  0.362815744
     0.653397811  0.857244636  0.297863857
     0.696053887  0.788809790  0.553302297
     0.737906282  0.745959722  0.239907688
     0.732929001  0.067871115  0.199171254
     0.920552549  0.726349900  0.486728367
     0.958613785  0.984048911  0.287770235
     0.809832984  0.961180022  0.299532094
     0.811601083  0.640452446  0.488546295
     0.794890055  0.886892160  0.979847561
     0.514427464  0.876738063  0.893991551
     0.845122905  0.078535966  0.047466380
     0.034410262  0.900055905  0.836354645
     0.963369361  0.701784966  0.670415087
     0.820923785  0.723207229  0.643741426
     0.862548932  0.977447640  0.738102344
     0.886770223  0.998049593  0.403491951
     0.920242162  0.846990771  0.762883232
     0.760431528  0.882690847  0.808077068
     0.645893091  0.720308434  0.047599114
     0.783305959  0.925690566  0.550525411
     0.573651014  0.887756811  0.341352619
     0.481386188  0.016826270  0.232098610
     0.988843286  0.517733643  0.052025526
     0.756629284  0.915397903  0.744002277
     0.527716473  0.902267414  0.841389176

  ion indices of the primitive-cell ions
   primitive index   ion index
                 1           1
                 2           2
                 3           3
                 4           4
                 5           5
                 6           6
                 7           7
                 8           8
                 9           9
                10          10
                11          11
                12          12
                13          13
                14          14
                15          15
                16          16
                17          17
                18          18
                19          19
                20          20
                21          21
                22          22
                23          23
                24          24
                25          25
                26          26
                27          27
                28          28
                29          29
                30          30
                31          31
                32          32
                33          33
                34          34
                35          35
                36          36
                37          37
                38          38
                39          39
                40          40
                41          41
                42          42
                43          43
                44          44
                45          45
                46          46
                47          47
                48          48
                49          49
                50          50
                51          51
                52          52
                53          53
                54          54
                55          55
                56          56
                57          57
                58          58
                59          59
                60          60
                61          61
                62          62
                63          63
                64          64
                65          65
                66          66
                67          67
                68          68
                69          69
                70          70
                71          71
                72          72
                73          73
                74          74
                75          75
                76          76
                77          77
                78          78
                79          79
                80          80
                81          81
                82          82
                83          83
                84          84
                85          85
                86          86
                87          87
                88          88
                89          89
                90          90
                91          91
                92          92
                93          93
                94          94
                95          95
                96          96
                97          97
                98          98
                99          99
               100         100
               101         101
               102         102
               103         103
               104         104
               105         105
               106         106
               107         107
               108         108
               109         109
               110         110
               111         111
               112         112
               113         113
               114         114
               115         115
               116         116
               117         117
               118         118
               119         119
               120         120
               121         121
               122         122
               123         123
               124         124
               125         125
               126         126
               127         127
               128         128
               129         129
               130         130
               131         131
               132         132
               133         133
               134         134
               135         135
               136         136
               137         137
               138         138
               139         139
               140         140
               141         141
               142         142
               143         143
               144         144
               145         145
               146         146
               147         147
               148         148
               149         149
               150         150
               151         151
               152         152
               153         153
               154         154
               155         155
               156         156
               157         157
               158         158
               159         159
               160         160
               161         161
               162         162
               163         163
               164         164
               165         165
               166         166
               167         167
               168         168
               169         169
               170         170
               171         171
               172         172
               173         173
               174         174
               175         175
               176         176
               177         177
               178         178
               179         179
               180         180
               181         181
               182         182
               183         183
               184         184
               185         185
               186         186
               187         187
               188         188
               189         189
               190         190
               191         191
               192         192
               193         193
               194         194
               195         195
               196         196
               197         197
               198         198
               199         199
               200         200
               201         201
               202         202
               203         203
               204         204
               205         205
               206         206
               207         207
               208         208
               209         209
               210         210
               211         211
               212         212
               213         213
               214         214
               215         215
               216         216
               217         217
               218         218
               219         219
               220         220
               221         221
               222         222
               223         223
               224         224
               225         225
               226         226
               227         227
               228         228
               229         229
               230         230
               231         231
               232         232
               233         233
               234         234
               235         235
               236         236
               237         237
               238         238
               239         239
               240         240
               241         241
               242         242
               243         243
               244         244
               245         245
               246         246
               247         247
               248         248
               249         249
               250         250
               251         251
               252         252
               253         253
               254         254
               255         255
               256         256
               257         257
               258         258
               259         259
               260         260
               261         261
               262         262
               263         263
               264         264
               265         265
               266         266
               267         267
               268         268
               269         269
               270         270
               271         271
               272         272
               273         273
               274         274
               275         275
               276         276
               277         277
               278         278
               279         279
               280         280
               281         281
               282         282
               283         283
               284         284
               285         285
               286         286
               287         287
               288         288
               289         289
               290         290
               291         291
               292         292
               293         293
               294         294
               295         295
               296         296
               297         297
               298         298
               299         299
               300         300
               301         301
               302         302
               303         303
               304         304
               305         305
               306         306
               307         307
               308         308
               309         309
               310         310
               311         311
               312         312
               313         313
               314         314
               315         315
               316         316
               317         317
               318         318
               319         319
               320         320
               321         321
               322         322
               323         323
               324         324
               325         325
               326         326
               327         327
               328         328
               329         329
               330         330
               331         331
               332         332
               333         333
               334         334
               335         335
               336         336
               337         337
               338         338
               339         339
               340         340
               341         341
               342         342
               343         343
               344         344
               345         345
               346         346
               347         347
               348         348
               349         349
               350         350
               351         351
               352         352
               353         353
               354         354
               355         355
               356         356
               357         357
               358         358
               359         359
               360         360

----------------------------------------------------------------------------------------

 
 
 KPOINTS: K-points                               

Automatic generation of k-mesh.
 Grid dimensions read from file:
 generate k-points for:    2    2    2

 Generating k-lattice:

  Cartesian coordinates                     Fractional coordinates (reciprocal lattice)
     0.027713147  0.000000000  0.000000000     0.500000000  0.000000000  0.000000000
     0.000000000  0.027713147  0.000000000     0.000000000  0.500000000  0.000000000
     0.000000000  0.000000000  0.029236535     0.000000000  0.000000000  0.500000000

  Length of vectors
     0.027713147  0.027713147  0.029236535

  Shift w.r.t. Gamma in fractional coordinates (k-lattice)
     0.500000000  0.500000000  0.500000000

 
 Subroutine IBZKPT returns following result:
 ===========================================
 
 Found      4 irreducible k-points:
 
 Following reciprocal coordinates:
            Coordinates               Weight
  0.250000  0.250000  0.250000      2.000000
 -0.250000  0.250000  0.250000      2.000000
 -0.250000 -0.250000  0.250000      2.000000
  0.250000 -0.250000  0.250000      2.000000
 
 Following cartesian coordinates:
            Coordinates               Weight
  0.013857  0.013857  0.014618      2.000000
 -0.013857  0.013857  0.014618      2.000000
 -0.013857 -0.013857  0.014618      2.000000
  0.013857 -0.013857  0.014618      2.000000
 


--------------------------------------------------------------------------------------------------------




 Dimension of arrays:
   k-points           NKPTS =      4   k-points in BZ     NKDIM =      4   number of bands    NBANDS=   1536
   number of dos      NEDOS =    301   number of ions     NIONS =    360
   non local maximal  LDIM  =      5   non local SUM 2l+1 LMDIM =     13
   total plane-waves  NPLWV = ******
   max r-space proj   IRMAX =   1951   max aug-charges    IRDMAX=  11640
   dimension x,y,z NGX =   126 NGY =  126 NGZ =  120
   dimension x,y,z NGXF=   252 NGYF=  252 NGZF=  240
   support grid    NGXF=   252 NGYF=  252 NGZF=  240
   ions per type =              71  71 213   5
   NGX,Y,Z   is equivalent  to a cutoff of  11.61, 11.61, 11.67 a.u.
   NGXF,Y,Z  is equivalent  to a cutoff of  23.22, 23.22, 23.33 a.u.

 SYSTEM =  Pv                                      
 POSCAR =  Mg71 Si71 O213 He5                      

 Startparameter for this run:
   NWRITE =      2    write-flag & timer
   PREC   = normal    normal or accurate (medium, high low for compatibility)
   ISTART =      0    job   : 0-new  1-cont  2-samecut
   ICHARG =      2    charge: 1-file 2-atom 10-const
   ISPIN  =      1    spin polarized calculation?
   LNONCOLLINEAR =      F non collinear calculations
   LSORBIT =      F    spin-orbit coupling
   INIWAV =      1    electr: 0-lowe 1-rand  2-diag
   LASPH  =      T    aspherical Exc in radial PAW
 Electronic Relaxation 1
   ENCUT  =  800.0 eV  58.80 Ry    7.67 a.u.  41.61 41.61 39.44*2*pi/ulx,y,z
   ENINI  =  800.0     initial cutoff
   ENAUG  = 1180.9 eV  augmentation charge cutoff
   NELM   =      8;   NELMIN=  2; NELMDL= -5     # of ELM steps 
   EDIFF  = 0.1E-05   stopping-criterion for ELM
   LREAL  =      T    real-space projection
   NLSPLINE    = F    spline interpolate recip. space projectors
   LCOMPAT=      F    compatible to vasp.4.4
   GGA_COMPAT  = T    GGA compatible to vasp.4.4-vasp.4.6
   LMAXPAW     = -100 max onsite density
   LMAXMIX     =    2 max onsite mixed and CHGCAR
   VOSKOWN=      0    Vosko Wilk Nusair interpolation
   ROPT   =   -0.00050  -0.00050  -0.00050  -0.00050

 Ewald summation
   EWALD_CUTOFF =   4.00

 Ionic relaxation
   EDIFFG = 0.1E-04   stopping-criterion for IOM
   NSW    =      0    number of steps for IOM
   NBLOCK =      1;   KBLOCK =      1    inner block; outer block 
   IBRION =     -1    ionic relax: 0-MD 1-quasi-New 2-CG
   NFREE  =      0    steps in history (QN), initial steepest desc. (CG)
   ISIF   =      2    stress and relaxation
   IWAVPR =     10    prediction:  0-non 1-charg 2-wave 3-comb
   MAXDIS =   0.00    maximum displacement; if above reset density
   ISYM   =      0    0-nonsym 1-usesym 2-fastsym
   LCORR  =      T    Harris-Foulkes like correction to forces

   POTIM  = 1.0000    time-step for ionic-motion
   TEIN   =    0.0    initial temperature
   TEBEG  = 4000.0;   TEEND  =4000.0 temperature during run
   SMASS  =   0.89    Nose mass-parameter (am)
   estimated Nose-frequenzy (Omega)   =  0.16E+15 period in steps = 0.40E+02 mass=   0.221E-26a.u.
   SCALEE = 1.0000    scale energy and forces
   NPACO  =    256;   APACO  = 10.0  distance and # of slots for P.C.
   PSTRESS=    0.0 pullay stress

  Mass of Ions in am
   POMASS =  24.30 28.09 16.00  4.00
  Ionic Valenz
   ZVAL   =   8.00  4.00  6.00  2.00
  Atomic Wigner-Seitz radii
   RWIGS  =  -1.00 -1.00 -1.00 -1.00
  virtual crystal weights 
   VCA    =   1.00  1.00  1.00  1.00
   NELECT =    2140.0000    total number of electrons
   NUPDOWN=      -1.0000    fix difference up-down

 DOS related values:
   EMIN   =  10.00;   EMAX   =-10.00  energy-range for DOS
   EFERMI =   0.00;   METHOD = LEGACY      
   ISMEAR =    -1;   SIGMA  =   0.34  broadening in eV -4-tet -1-fermi 0-gaus
   EFERMI_NEDOS =   21; number of points for ismear=-14 and -15

 Electronic relaxation 2 (details)
   IALGO  =     38    algorithm
   LDIAG  =      T    sub-space diagonalisation (order eigenvalues)
   LSUBROT=      F    optimize rotation matrix (better conditioning)
   LROBUST=      F    robust break criterion during scf (extrapolated energy error)
   ISEARCH=      0    line search for conjugate gradient (0, 1=use gradient)
   TURBO    =      0    0=normal 1=particle mesh
   IRESTART =      0    0=no restart 2=restart with 2 vectors
   NREBOOT  =      0    no. of reboots
   NMIN     =      0    reboot dimension
   EREF     =   0.00    reference energy to select bands
   IMIX   =      4    mixing-type and parameters
     AMIX     =   0.40;   BMIX     =  1.00
     AMIX_MAG =   1.60;   BMIX_MAG =  1.00
     AMIN     =   0.10
     WC   =   100.;   INIMIX=   1;  MIXPRE=   1;  MAXMIX=  50

 Intra band minimization:
   WEIMIN = 0.0000     energy-eigenvalue tresh-hold
   EBREAK =  0.16E-09  absolut break condition
   DEPER  =   0.30     relativ break condition  

   TIME   =   0.40     timestep for ELM

  volume/ion in A,a.u.               =      15.46       104.35
  Fermi-wavevector in a.u.,A,eV,Ry     =   1.190352  2.249438 19.278599  1.416937
  Thomas-Fermi vector in A             =   2.326438
 
 Write flags
   LH5          =      F    write vaspwave.h5 (instead of legacy files WAVECAR, CHGCAR, etc.)
   LWAVE        =      F    write Kohn-Sham orbitals (WAVECAR/vaspwave.h5)
   LDOWNSAMPLE  =      F    k-point downsampling of WAVECAR
   LCHARG       =      F    write restart densities (CHGCAR/vaspwave.h5)
   LCHARGH5     =      F    write charge density to vaspwave.h5
   LTAU         =      T    evaluate kinetic energy density (TAUCAR/vaspwave.h5)
   LVTOT        =      F    write LOCPOT, total local potential
   LVHAR        =      F    write LOCPOT, Hartree potential only
   WRT_POTENTIAL= None    ! write potential to vaspout.h5
   WRT_DENSITY  = None    ! write densities to vaspout.h5
   LELF         =      F    write electronic localiz. function (ELF)
   LORBIT       =      0    0 simple, 1 ext, 2 COOP (PROOUT), +10 PAW based schemes


 Python interface
   PLUGINS active      =      F    recompile with -DPLUGINS to activate
 
 Dipole corrections
   LMONO      =      F    monopole corrections only (constant potential shift)
   LDIPOL     =      F    correct potential (dipole corrections)
   IDIPOL     =      0    1-x, 2-y, 3-z, 4-all directions 
   EPSILON    =  1.0000000 bulk dielectric constant
   LVACPOTAV  =      F  vacuum potentials using an averaging scheme for the charge density
   VACPOTFLAT =  0.1000000 required flatness to determine vacuum potential
 
Coulomb truncation method
  LTRUNCATE          =      F  Coulomb kernel truncation to be used

 
 Exchange correlation treatment:
   METAGGA = R2SCAN    functional components
   XC_C    = 1    coefficients multiplying the functional components
   LIBXC   =     F    Libxc                    
   VOSKOWN =     0    Vosko Wilk Nusair interpolation
   LHFCALC =     F    Hartree Fock is set to
   LHFONE  =     F    Hartree Fock one center treatment
   AEXX    =    0.0000 exact exchange contribution
   BEXX    =    1.0000 short-range exact exchange contribution

 Parameters of functionals:
   R2SCAN:
     No parameter
 
 Accuracy and mixing parameters for tau-dependent meta-GGA functionals:
   LMAXTAU = 6
   LMIXTAU = F
 
 Van der Waals corrections
   IVDW    =     0    specifies the selected vdW correction

 Linear response parameters
   LEPSILON=     F    determine dielectric tensor
   LRPA    =     F    only Hartree local field effects (RPA)
   LNABLA  =     F    use nabla operator in PAW spheres
   LVEL    =     F    velocity operator in full k-point grid
   CSHIFT  =0.1000    complex shift for real part using Kramers Kronig
   OMEGAMAX=  -1.0    maximum frequency
   DEG_THRESHOLD= 0.2000000E-02 threshold for treating states as degnerate
   RTIME   =   -0.100 relaxation time in fs
  (WPLASMAI=    0.000 imaginary part of plasma frequency in eV, 0.658/RTIME)
   DFIELD  = 0.0000000 0.0000000 0.0000000 field for delta impulse in time
 
  Optional k-point grid parameters
   LKPOINTS_OPT  =     F    use optional k-point grid
   KPOINTS_OPT_MODE=     1    mode for optional k-point grid
 
 Orbital magnetization related:
   ORBITALMAG=     F  switch on orbital magnetization
   LCHIMAG   =     F  perturbation theory with respect to B field
   DQ        =  0.001000  dq finite difference perturbation B field
[...]
   0.57232466  0.94281175  0.36394369
   0.77592872  0.83524594  0.41674312
   0.40501762  0.62463655  0.39583432
   0.48737278  0.52859276  0.50250499
   0.39898447  0.78228612  0.16474652
   0.65685142  0.98831119  0.95394984
   0.58810176  0.87001485  0.52329509
   0.49078094  0.11485112  0.40712605
   0.66681652  0.72189917  0.38377776
   0.47427610  0.82590661  0.57355503
   0.53273255  0.74299442  0.25013287
   0.33784095  0.86907815  0.58605891
   0.54546120  0.06565362  0.90020724
   0.62667790  0.87268640  0.00908232
   0.53607975  0.90011687  0.66022265
   0.37163492  0.64231588  0.58687052
   0.35629070  0.88861038  0.70388390
   0.66311182  0.95289379  0.46419986
   0.44140720  0.93787327  0.86084901
   0.42558299  0.77117869  0.69714781
   0.42082631  0.86031525  0.97925114
   0.53444578  0.98177643  0.53130707
   0.49076210  0.16136907  0.09053133
   0.69417494  0.38720361  0.41535438
   0.84461853  0.33564108  0.34664794
   0.79438568  0.20094521  0.21665470
   0.60018414  0.20239184  0.20622018
   0.48812880  0.28779711  0.19119611
   0.00762717  0.48474946  0.86301837
   0.00717766  0.03145161  0.46407648
   0.93540680  0.18061208  0.13697017
   0.78204224  0.29652010  0.55619438
   0.86606296  0.11364178  0.44560133
   0.75304320  0.27469710  0.03583141
   0.69344885  0.12704617  0.56940753
   0.88616053  0.44715990  0.78110929
   0.96593560  0.24541151  0.96522929
   0.91909484  0.02524220  0.56490803
   0.82036952  0.12870441  0.76548528
   0.79523370  0.21611927  0.89005631
   0.84028973  0.27032674  0.73575757
   0.90791535  0.36020048  0.91530499
   0.08103946  0.10468642  0.80767945
   0.90166327  0.94931325  0.90400214
   0.67947034  0.12881576  0.06823017
   0.99884773  0.17192733  0.72603350
   0.73778434  0.43423061  0.09626631
   0.87886643  0.69158099  0.33332894
   0.83347784  0.46117998  0.33417973
   0.73965775  0.39270245  0.23468604
   0.64829471  0.53587799  0.19606750
   0.87580690  0.65843606  0.19195568
   0.11191182  0.66461332  0.08756189
   0.87761380  0.41735607  0.46807136
   0.98223647  0.55659080  0.17431026
   0.81254333  0.55284454  0.15629114
   0.89418072  0.15921071  0.64887127
   0.66230315  0.59749818  0.95247047
   0.64859845  0.50530208  0.70898860
   0.80215090  0.65508333  0.03369773
   0.11574807  0.55833617  0.95640571
   0.92444347  0.20893270  0.82246144
   0.73291237  0.38613776  0.76687109
   0.88634344  0.57917591  0.64972439
   0.90376947  0.55952673  0.40361767
   0.99186402  0.62285515  0.90965064
   0.84511182  0.67210973  0.76894689
   0.07992683  0.26001080  0.80904772
   0.86501540  0.50891698  0.92764865
   0.75901261  0.44222474  0.58782480
   0.76823555  0.96465525  0.07315027
   0.66291949  0.15580931  0.34310740
   0.93271308  0.86315862  0.36281574
   0.65339781  0.85724464  0.29786386
   0.69605389  0.78880979  0.55330230
   0.73790628  0.74595972  0.23990769
   0.73292900  0.06787112  0.19917125
   0.92055255  0.72634990  0.48672837
   0.95861378  0.98404891  0.28777024
   0.80983298  0.96118002  0.29953209
   0.81160108  0.64045245  0.48854629
   0.79489005  0.88689216  0.97984756
   0.51442746  0.87673806  0.89399155
   0.84512291  0.07853597  0.04746638
   0.03441026  0.90005591  0.83635464
   0.96336936  0.70178497  0.67041509
   0.82092379  0.72320723  0.64374143
   0.86254893  0.97744764  0.73810234
   0.88677022  0.99804959  0.40349195
   0.92024216  0.84699077  0.76288323
   0.76043153  0.88269085  0.80807707
   0.64589309  0.72030843  0.04759911
   0.78330596  0.92569057  0.55052541
   0.57365101  0.88775681  0.34135262
   0.48138619  0.01682627  0.23209861
   0.98884329  0.51773364  0.05202553
   0.75662928  0.91539790  0.74400228
   0.52771647  0.90226741  0.84138918
 
 position of ions in cartesian coordinates  (Angst):
   3.54522920  3.35017920  1.60196979
   5.86327920 17.79578920  5.95929479
   2.75654220  2.06689200  5.27233479
  17.69108920  4.94899920  2.24102879
   3.55305920  1.77402220 11.53114479
   6.75240920 17.85228920 11.47335479
   5.33477920  4.44699920 15.35434479
  15.28178920  7.58794920 11.92854479
   1.61794020 10.75442920  2.75900379
   4.23296920  5.27770920  6.08859479
   0.38711920  8.48244920  4.33654479
  15.32038920 16.61168920  1.70360779
  17.48908920  6.43143920  9.06151479
   3.32795920  8.54819920 16.28334479
   3.79527920 11.16362920 15.74334479
   1.13970120 13.66268920 10.67054479
   2.55750920 16.85028920  0.61467479
   7.47520920 12.07148920  8.79502479
   3.89466920 12.20138920  4.69404479
   0.95199920 17.38068920  4.28037479
   4.06569920 14.96018920  7.34291479
   5.23373920 11.08032920 11.04217479
   4.17894920 13.77678920 13.74264479
   3.26965920 16.32268920 12.24604479
   9.79288920  1.87918620 17.06114479
  14.99168920  3.73745920  6.74148479
  10.18177920  3.70225920  6.09236479
   5.54132920  3.22738920  3.37412479
  11.46239920  0.74592920 11.11799479
  13.59778920 14.39568920 11.92014479
   7.54506920  3.46799920 11.39843479
   4.46080920  5.41191920 10.99696479
   9.71762920  9.52435920  3.35733479
  11.96372920  6.49036920  9.01966479
   7.55466920  6.37635920  6.81914479
   5.63685920 11.38312920  1.16176679
   7.23473920  8.73751920  9.16428479
  14.49598920  5.56821920 14.10954479
   6.01214920  9.74606920 14.28674479
   3.65845920 10.79543920  7.80866479
  11.51112920 14.43688920  3.43981479
  13.02708920 10.96794920  7.57210479
   5.79798920 12.11928920  6.21096479
   6.63793920 18.02538920 16.03414479
   7.28080920 15.49278920 13.69704479
  10.07667920 11.86669920  1.07455579
   9.82441920 14.39058920 17.02294479
   8.09404920  1.01050920  8.59242479
  14.54728920  6.01810920  2.16804579
   2.55441820 15.12808920  4.25193479
  11.81757920  6.40116920  5.64317479
   9.98037920  5.26052920  1.51532679
  16.99618920  0.85706920 11.66456479
  16.18428920  1.44101720 16.32044479
   1.08163520 17.90588920 14.38984479
  14.32318920  3.91002920 10.79886479
  13.32068920  8.36941920 16.79054479
  17.85678920  4.89556920  6.53888479
  14.29468920  6.54994920  7.79587479
  13.99258920 12.55238920  2.63033979
  17.24698920 11.55574920  9.34200479
   3.04082920  9.13367920 13.12454479
  14.99058920 10.93507920 14.67294479
  11.46998920 12.05608920 10.76963479
  12.57558920 17.13668920  5.57076479
  15.48788920 14.10598920  4.37384479
  15.11708920 10.61115920  5.54942479
   7.70559920  1.27732220  2.16106579
  14.31228920 14.03348920  9.25847479
  15.95168920 14.26158920  0.45974479
  15.42848920 17.25918920 10.81463479
  17.27788920  5.88948920 17.03794479
   4.68523920  1.64450220 16.30264479
  15.72668920  2.97230820  3.45708479
   2.90706820  0.51949920  3.15554479
   1.56729120  1.29055220  8.58459479
   4.40313920 17.77798920  8.72502479
   0.88286920  1.50601020 12.14444479
   4.01138920 17.28718920 14.57614479
   0.62091920 10.01317920 16.42214479
   6.34749920  5.32828920  0.81159479
  14.74488920  7.20752920  4.65948479
   2.25914920  4.77381920  3.77055479
  16.80448920  8.50942920  7.35770479
   2.14724620  4.68163920  8.34366479
   0.86214920  7.05641920 11.29670479
   2.37349920  4.63905920 12.52784479
  17.50288920 16.20898920 15.90494479
   3.39292920 12.50268920  0.60279479
  16.02448920 16.86568920  5.60602479
   3.99873920  9.73498920  3.41074479
   0.64565920 14.79188920  6.71922479
   1.16159320 11.38876920  5.14201479
   0.30730920 14.63888920 13.70694479
   1.75169820 10.45991920  9.86804479
   9.08112920  4.61979920 15.64244479
  10.13583920 17.69318920 16.02404479
   5.50956920  0.08166920  1.59114379
   8.26462920  2.00528010  5.35007479
   5.72211920  2.01742032  6.77049479
  10.49531920 17.13678920  8.03143479
   5.74097920  2.52707620 13.47524479
  11.27575920  1.52947720 13.75654479
   6.39331920  8.22359920  1.16928079
   7.81833920  8.73731920 15.24984479
   6.67573920  8.38175920  4.12602479
   8.64843920  6.50273920  4.26583479
   4.86557920  7.95380920  7.69442479
   9.12199920  4.24085920  9.31461479
   6.69826920  6.96345920 12.77484479
  11.10209920  3.93088920 11.78663479
   8.35722920 16.70818920  1.64726579
   8.77513920 14.05148920  3.06974479
   5.94771920 13.89848920  3.58016479
   8.23196920  9.93372920  6.72156479
   7.27053920 15.10488920  8.68667479
  10.03798920 14.99128920 10.51352479
   6.22693920 14.53128920 11.25262479
   7.96198920 12.11178920 11.79049479
  12.78848920  3.56873920 17.08994479
  13.54018920  0.75115920  1.70333879
   9.34855920  3.38217920  3.14046479
  12.68318920  2.62141820  4.48407479
  12.07478920  3.53014920  8.82986479
  16.52448920  0.88898920  7.99318479
  13.74178920  2.92844920 14.06524479
  15.53338920 16.48408920 13.96124479
  10.14645920  8.40457920  0.13929479
  16.43138920  8.15506920 15.01594479
  10.53975920 10.25386920  6.24364479
  12.90898920  8.98974920  2.78019179
  12.51898920  8.95044920 10.68955479
  16.56998920  3.81412920 12.39594479
  11.85047920  6.73562920 12.16054479
   0.32159920  3.65943920 14.14334479
  12.77348920 16.45728920  0.20842479
  12.88048920 12.10288920 16.98884479
  13.08498920 13.98028920  5.66522479
  16.16078920 10.50482920  2.38075379
  12.61728920 15.65438920  8.56956479
  15.65028920 12.54558920  7.40188479
  15.86848920 11.86558920 11.73261479
  16.62168920  6.42103920  1.12600879
   0.60463920  5.07617920  8.47764479
   5.74651920  3.67142920  6.11171479
   1.56697920  0.25134920  2.31542879
   3.66755920  2.10899440  3.15945479
  16.21808920  2.86524120  4.90608479
   5.59973920  6.06664920 16.66364479
   4.17119920 17.07098920 10.14008479
   1.61195920  3.60392920  4.70802479
   4.26227920 17.63538920  2.35087579
   2.94716620  0.58921920  8.11996479
   5.82426920  4.44055920  1.88394529
   1.40531620  1.58336120 10.52379479
   4.18792920  9.43597920 14.80544479
   6.79819920  3.46824920 13.09054479
   3.07729920 17.54758920 13.20704479
   0.14283920  0.11377920 12.49704479
   2.53879420  3.29924920 11.83557479
   2.47190920  5.38128920  6.81028479
   6.31025920  2.12076620 15.35514479
   3.55254920  5.50157920 13.20304479
   4.39026920  3.43291920 13.94364479
   3.84247920  2.56125320 17.06014479
   1.67514520  2.91020520  8.52816479
  15.56428920  6.73227920  3.41920479
   3.12677920 10.43159920  4.73905479
   5.47242920  9.24297920  4.12273479
   6.09599920  6.82205920  1.87022049
   1.53967220  4.84089920  2.25031979
   2.44766620  8.79079920  3.13424479
   5.25481920 11.85318920 16.51044479
   4.58840920  6.93386920  6.29420479
   4.25137920 10.97834920  2.62614179
   3.79567920  4.48469920  3.58523479
  17.50218920  7.52037920  6.28691479
  17.83888920  8.93446920  0.00790479
  17.14818920  6.73110920 11.33400479
   2.73146420 12.82878920 16.18474479
   7.20870920  7.21164920 14.16004479
   3.91685920  4.87220920  9.08095479
   1.27308520  8.38732920 12.09754479
   0.97853920  7.57501920  9.75700479
   2.33595020  9.84348920  8.49797479
   4.91435920  8.57697920  0.78235479
   3.10940920 10.59848920 10.72519479
   1.95004920  5.72586920 11.37882479
   1.95567160  6.28649920  4.53916479
   0.67634920  9.93152920  5.34336479
  17.01818920 15.80528920  0.21158479
   3.00338620 17.69418920  4.70778479
   7.50215920 14.09388920  7.24912479
   4.66383920 13.06218920  1.54611579
  16.14258920 14.74038920  2.38953479
   1.98081400 12.49258920  4.13679479
   5.05593920  0.32725920  0.20874479
   4.28756920 13.25978920  6.70475479
   7.00865920 17.47438920  1.24088579
   5.72202920 12.65338920  4.60643479
   1.05811220 13.44178920  6.21215479
   1.27809120 17.06658920 16.17034479
   1.90219720 15.35468920  7.85662479
   3.66879920  0.95255920 15.04254479
   9.71119920 14.95418920  2.40817379
   1.18829620 11.92202920  9.59232479
   1.27168620 14.55398920 12.33514479
   3.96489920 15.78568920 13.90734479
   4.45667920 16.86218920  7.38778479
   5.86446920 17.99528920 14.52154479
   4.51709920 13.68978920 11.86845479
  17.52128920 14.35348920 15.67694479
   1.38281220 16.04128920  5.48866479
   8.12523920  5.18705920  0.60293479
   8.86985920  5.87590920  8.44796479
  11.99288920  4.59037920 10.30230479
   9.03456920  1.39392620  3.99116479
   6.76254920  1.19557720  5.07547479
   5.98721920  1.51244220  1.98547109
   9.62382920  6.09650920 14.93324479
  12.50168920  4.13202920  7.54619479
   9.21415920  5.72772920  5.72449479
   8.58323920  3.24120920  4.75337479
   4.52742920  1.25870820  6.13091479
   8.64432920  3.49545920 16.34264479
   6.17447920  0.67554920  8.02304479
   7.65043920  9.80893920 14.13644479
  10.96039920  3.68539920 16.75524479
  11.20297920  0.17617920 12.87074479
   5.93024920  1.78186820 12.00424479
  10.29001920  2.63725020 13.03824479
  10.57787920  3.66727920  8.91106479
   9.08375920 17.76318920  0.44025479
  13.08028920  3.68408920 12.47474479
  12.15188920  2.37516720 14.68434479
   8.67581920 17.25678920  2.98941479
   7.95590920  3.03952920  9.27524479
   7.49300920  8.92824920  2.72308179
  11.04437920 13.90218920 10.85318479
  11.98385920 10.78230920  6.04827479
   9.69766920  7.60869920  4.14788479
   7.15664920  6.78062920  4.48119479
   7.13990920  8.85786920  6.05959479
   9.10834920  7.48274920  1.11693079
  11.50307920  7.30210920 10.78146479
   9.53663920 10.89518920  5.23680479
   9.51354920  9.05215920  6.56274479
   6.17769920  7.09806920  8.25249479
   8.67493920 12.23278920  1.99160579
   5.13850920  7.32763920 12.30394479
  10.21350920  9.74206920  0.72003479
  11.62726920  7.73944920 16.80914479
   9.65769920  3.64830920 11.02568479
   6.74976920  5.96829920 11.40755479
   6.65190920 11.49838920 12.74734479
  12.13858920  9.80829920  9.38132479
   9.46232920  8.35671920 15.65324479
   9.39835920 12.07678920 11.68490479
  10.68214920  5.45498920 12.45124479
   7.03707920  8.85308920 16.67164479
   5.33884920  9.26266920  8.65163479
   4.60600920 14.90288920  3.63673479
  10.32586920 17.01018920  6.22412479
  13.99928920 15.06948920  7.12709479
   7.30731920 11.26967920  6.76951479
   8.79316920  9.53685920  8.59378479
   7.19846920 14.11398920  2.81747679
  11.85089920 17.83108920 16.31434479
  10.61051920 15.69678920  8.94933479
   8.85465920  2.07214140  6.96262479
  12.03068920 13.02448920  6.56332479
   8.55687920 14.90098920  9.80887479
   9.61154920 13.40508920  4.27774479
   6.09531920 15.67988920 10.02271479
   9.84119920  1.18452120 15.39524479
  11.30650920 15.74498920  0.15532479
   9.67193920 16.23988920 11.29105479
   6.70502920 11.58864920 10.03659479
   6.42818920 16.03228920 12.03774479
  11.96384920 17.19208920  7.93869479
   7.96385920 16.92108920 14.72214479
   7.67835920 13.91358920 11.92254479
   7.59253920 15.52178920 16.74704479
   9.64245920 17.71318920  9.08635479
   8.85431920  2.91141720  1.54825679
  12.52428920  6.98591920  7.10334479
  15.23858920  6.05562920  5.92833479
  14.33228920  3.62544920  3.70520479
  10.82850920  3.65154920  3.52675479
   8.80680920  5.19242920  3.26981479
   0.13760920  8.74583920 14.75924479
   0.12949920  0.56744920  7.93658479
  16.87658920  3.25859920  2.34244879
  14.10958920  5.34980920  9.51197479
  15.62548920  2.05032260  7.62062479
  13.58638920  4.95607920  0.61278479
  12.51118920  2.29216420  9.73794479
  15.98808920  8.06764920 13.35844479
  17.42738920  4.42770920 16.50724479
  16.58228920  0.45541920  9.66099479
  14.80108920  2.32208220 13.09124479
  14.34758920  3.89921920 15.22164479
  15.16048920  4.87722920 12.58284479
  16.38058920  6.49872920 15.65344479
   1.46211220  1.88875020 13.81284479
  16.26778920 17.12748920 15.46014479
  12.25898920  2.32409120  1.16686479
  18.02118920  3.10190920 12.41654479
  13.31108920  7.83437920  1.64633579
  15.85648920 12.47748920  5.70055479
  15.03758920  8.32059920  5.71510479
  13.34488920  7.08512920  4.01357479
  11.69651920  9.66829920  3.35312479
  15.80128920 11.87948920  3.28280479
   2.01911057 11.99093920  1.49747379
  15.83388920  7.52992920  8.00490479
  17.72148920 10.04199920  2.98103479
  14.65988920  9.97440920  2.67287379
  16.13278920  2.87247620 11.09692479
  11.94925920 10.78004920 16.28904479
  11.70199920  9.11664920 12.12504479
  14.47238920 11.81899920  0.57629479
   2.08832410 10.07348920 16.35634479
  16.67878920  3.76955920 14.06564479
  13.22318920  6.96668920 13.11494479
  15.99138920 10.44947920 11.11151479
  16.30578920 10.09496920  6.90262479
  17.89518920 11.23753920 15.55674479
  15.24748920 12.12618920 13.15044479
   1.44203820  4.69110920 13.83624479
  15.60658920  9.18186920 15.86454479
  13.69408920  7.97860920 10.05291479
  13.86048920 17.40428920  1.25100779
  11.96037920  2.81110820  5.86778479
  16.82798920 15.57308920  6.20483479
  11.78858920 15.46638920  5.09403479
  12.55818920 14.23168920  9.46251479
  13.31328920 13.45858920  4.10287479
  13.22348920  1.22452920  3.40620479
  16.60858920 13.10478920  8.32397479
  17.29528920 17.75418920  4.92141479
  14.61098920 17.34158920  5.12256479
  14.64288920 11.55502920  8.35506479
  14.34138920 16.00128920 16.75724479
   9.28128920 15.81808920 15.28894479
  15.24768920  1.41694420  0.81176479
   0.62082920 16.23878920 14.30324479
  17.38108920 12.66158920 11.46536479
  14.81108920 13.04808920 11.00919479
  15.56208920 17.63508920 12.62294479
  15.99908920 18.00678920  6.90047479
  16.60298920 15.28138920 13.04674479
  13.71968920 15.92548920 13.81964479
  11.65318920 12.99578920  0.81403479
  14.13238920 16.70128920  9.41502479
  10.34979920 16.01688920  5.83777479
   8.68515920  0.30357920  3.96932479
  17.84068920  9.34093920  0.88973479
  13.65108920 16.51558920 12.72384479
   9.52104920 16.27868920 14.38934479
 


--------------------------------------------------------------------------------------------------------


 k-point     1 :   0.2500 0.2500 0.2500  plane waves:  286039
 k-point     2 :  -0.2500 0.2500 0.2500  plane waves:  286039
 k-point     3 :  -0.2500-0.2500 0.2500  plane waves:  286039
 k-point     4 :   0.2500-0.2500 0.2500  plane waves:  286039

 maximum and minimum number of plane-waves per node :    286039   286039

 maximum number of plane-waves:    286039
 maximum index in each direction: 
   IXMAX=   41   IYMAX=   41   IZMAX=   39
   IXMIN=  -41   IYMIN=  -41   IZMIN=  -39


 serial   3D FFT for wavefunctions
 parallel 3D FFT for charge:
    minimum data exchange during FFTs selected (reduces bandwidth)


 total amount of memory used by VASP MPI-rank0 30408226. kBytes
=======================================================================

   base                                    :      30000. kBytes
   nonlr-proj                              :      52407. kBytes
   fftplans                                :     522756. kBytes
   grid                                    :    1364827. kBytes
   one-center                              :       2920. kBytes
   wavefun                                 :   28435316. kBytes
 
     INWAV:  cpu time      0.0002: real time      0.0003
 Broyden mixing: mesh for mixing (old mesh)
   NGX = 83   NGY = 83   NGZ = 79
  (NGX  =252   NGY  =252   NGZ  =240)
  gives a total of 544231 points

 initial charge density was supplied:
 charge density of overlapping atoms calculated
 number of electron    2140.0000000 magnetization 
 keeping initial charge density in first step


--------------------------------------------------------------------------------------------------------


 Maximum index for non-local projection operator          1859
 Maximum index for augmentation-charges         11154 (set IRDMAX)


--------------------------------------------------------------------------------------------------------


 First call to EWALD:  gamma=   0.100
 Maximum number of real-space cells   3x   3x   3
 Maximum number of reciprocal cells   3x   3x   3

    FEWALD:  cpu time      5.9427: real time      5.9617


--------------------------------------- Ionic step        1  -------------------------------------------




--------------------------------------- Iteration      1(   1)  ---------------------------------------


    POTLOK:  cpu time      0.1702: real time      0.1829
    SETDIJ:  cpu time     45.9076: real time     45.9667
