LAMMPS data file via write_data, version 2 Aug 2023, timestep = 600, units = metal

2880 atoms
4 atom types

-0.7733065645957673 28.793306564595838 xlo xhi
-0.7733065645957673 28.793306564595838 ylo yhi
-0.7330129320365071 27.293012932036525 zlo zhi

Masses

1 24.305
2 28.0855
3 15.9994
4 4.002602

Atoms # atomic

1 1 2.452238055587088 1.9504094560739071 0.2966890561758233 0 0 0
57 2 -0.6995387447622279 2.119828394793089 2.4207551201567967 0 0 0
58 2 1.8267055472428138 -0.6788368406002023 2.4047529694501013 0 0 0
112 3 2.1262170254850052 0.024814948965505512 0.6850913267298953 0 0 0
113 3 0.41571270704839813 0.43372722520479323 2.6582316578302048 0 0 0
114 3 0.5158499030478512 3.2355861592825637 2.357840799041756 0 0 0
118 3 2.96651335803039 0.6322360410632746 3.4356567877283677 0 0 0
117 3 2.8448241020332663 2.8416280874627513 1.9042157094038514 0 0 0
75 2 4.107146479951173 1.4968525878334065 2.7785882785019265 0 0 0
163 3 4.449814618192903 1.3876955406995877 1.233892145371433 0 0 0
167 3 5.179061092298649 -0.057913892400533906 2.8704386657215744 0 0 0
168 3 5.415790208301271 2.6989863593693566 3.414951279330502 0 0 0
19 1 6.468548229541839 1.5769375960022862 0.9999871183600479 0 0 0
76 2 6.7738651210856 28.48486454081539 2.625467763206889 0 -1 0
166 3 6.262800037058771 -0.20158320651005823 0.14636293686838486 0 0 0
172 3 7.746750441617227 0.4271771347155593 2.3965039855986903 0 0 0
93 2 9.418183217874358 1.4635993911924081 2.628986567710051 0 0 0
217 3 9.730289950627563 0.2851581766762019 0.36569519833025277 0 0 0
221 3 10.499730812775672 -0.33617773892850444 2.9959573747230586 0 0 0
37 1 12.250748954273538 1.867873111579211 1.251285959297892 0 0 0
220 3 12.022672223099663 0.2066907554467975 0.7612650666306777 0 0 0
222 3 10.831613500654841 2.284887884564846 2.5815046513690922 0 0 0
171 3 8.119514867872049 2.7394650813491817 2.5357294127318717 0 0 0
772 1 9.794039116265601 28.25237259729058 1.483327992730723 0 0 0
226 3 12.668852610719826 0.8305602122894074 3.496063488655606 0 0 0
417 2 13.781160907559888 1.9008708214562882 2.9672230191560436 0 0 0
469 3 14.361038167126887 1.0364694600421622 1.502945920854247 0 0 0
473 3 14.846631613309595 -0.2991438546763962 3.8357167324985095 0 0 0
474 3 15.364488254132453 3.134737208266046 2.7942634804973405 0 0 0
225 3 13.031168774024977 3.1569558023087803 2.2160310684291895 0 0 0
361 1 15.926170520771922 1.9776716931620482 0.9929897274426862 0 0 0
472 3 15.711073170292046 28.28311958907469 0.3346560543087249 0 -1 0
478 3 16.49559440324586 0.39967409748741733 2.3992609120448685 0 0 0
435 2 18.891438407900193 1.7587817908895147 2.901348686190272 0 0 0
523 3 18.44293550801672 1.7156785013959936 1.2131016919019664 0 0 0
527 3 19.754809643279547 0.010044668403349166 2.9964065207481547 0 0 0
477 3 18.06257477024085 3.2733945755560754 2.969440634533639 0 0 0
528 3 20.226660477576292 2.6885343831804454 3.1040861018804966 0 0 0
379 1 21.439815529423665 1.114851786054657 0.5198422267962133 0 0 0
436 2 20.994601140027292 28.434300458569627 2.8479393948753278 0 -1 0
453 2 23.79629994185055 1.6867671592619877 2.4747208242217744 0 0 0
526 3 20.820703223169133 -0.3593726930363906 -0.09156319547318548 0 0 0
532 3 22.474358990563374 0.22720331636992053 2.7743101909972085 0 0 0
577 3 23.44210050367033 1.0316268855998378 0.6902574752989383 0 0 0
531 3 22.9956155116764 3.1323177699112588 2.1554540234357766 0 0 0
109 3 28.294493748169764 1.5184084799313107 1.0805953158076247 -1 0 0
581 3 24.702288774371823 0.1660375360364017 2.644758703657453 0 0 0
397 1 26.60814375481751 1.6260300934832084 1.3186521515191325 0 0 0
580 3 26.026815438918828 -0.17879551938626814 0.840738565586141 0 0 0
582 3 25.376167844812038 2.6079747917549603 2.4672301224037096 0 0 0
586 3 27.47799083325439 0.6776852374926476 3.0358757349606025 0 0 0
583 3 28.138993564146396 3.4145343567531192 -0.4321578211341159 0 0 0
585 3 27.466772355892754 3.199994057941222 2.6029721942869846 0 0 0
2086 4 24.522276741590833 3.100733406101925 25.698019794525585 0 0 0
4 1 -0.44807896396509594 4.534493981892664 1.4245359697741171 0 0 0
64 2 1.7059209069795958 4.200935883307546 2.5102206167337435 0 0 0
130 3 1.4913348608889656 4.726222415263553 0.9206195711356737 0 0 0
131 3 0.18993597260817374 5.301996496441982 3.0125597150840893 0 0 0
136 3 2.8728477729623507 5.311082546824541 2.720609873840077 0 0 0
7 1 1.6291732215536516 6.972883503501591 1.000698939228345 0 0 0
63 2 28.461824405646947 6.861174410699757 2.973302480816754 -1 0 0
132 3 0.5470808821088182 7.544961158128411 2.4664740508230163 0 0 0
22 1 4.6173653203985 3.8559651099110432 1.1987558693644869 0 0 0
181 3 4.3170090680389785 5.84752608860479 1.2765305180990638 0 0 0
185 3 5.109320520769302 5.072346815040406 3.3240266754488736 0 0 0
82 2 6.691063050786289 3.8978725955321547 3.002340987048975 0 0 0
184 3 6.329066597825839 4.020064523320553 1.358897046500533 0 0 0
190 3 7.825805479836253 5.399917389972263 3.0552278228805507 0 0 0
81 2 4.3016944038975105 6.541326615571785 2.825269441181012 0 0 0
186 3 5.680579570234095 7.332956552056265 2.9203107440970086 0 0 0
25 1 6.803420881175124 7.139349190120886 1.0323809254116536 0 0 0
1718 4 4.835876849034756 5.085496407580597 24.101999683282983 0 0 0
40 1 9.01730548717765 4.566251957151054 1.4789894747959598 0 0 0
235 3 8.879838257336235 6.424479880686208 1.3594234762967314 0 0 0
239 3 10.135842038549248 4.651734148316632 3.498985997986373 0 0 0
100 2 11.535525353350273 3.8046199137319077 3.274325989207205 0 0 0
238 3 11.283425553124406 4.868979431518172 1.3146836879896364 0 0 0
99 2 9.225466990884584 6.740074967320772 3.115096226688207 0 0 0
240 3 10.666860631671263 7.534649213591138 3.3017352063854286 0 0 0
244 3 12.390270599580385 5.35039818768201 3.3386604982817047 0 0 0
364 1 14.33327386254665 3.6006652725905237 0.642969739811468 0 0 0
487 3 14.183063801273681 5.712732215115595 1.6594235084147142 0 0 0
491 3 15.072589574965297 4.830658630422859 3.772913255112588 0 0 0
43 1 11.696611950348613 6.637709095655161 1.9562342737173042 0 0 0
423 2 14.056015967486875 6.198581507991074 3.2094929392354183 0 0 0
492 3 15.572486344225954 7.293048820099763 3.4690880297486393 0 0 0
424 2 16.621382107696498 4.28866779429607 2.6014818980754324 0 0 0
490 3 16.436023515605196 3.9800295790408704 1.0041022148472059 0 0 0
496 3 17.20900520630426 5.818560736021058 3.2148457405364455 0 0 0
382 1 18.386588041053965 3.5082640256133804 0.20974636269264502 0 0 0
541 3 18.013065636012016 6.959281772021659 1.2570857745187851 0 0 0
545 3 19.538073505979703 5.295007525171987 3.7585716044132793 0 0 0
367 1 15.317703651866697 7.172848050427119 1.3716833425269916 0 0 0
441 2 18.596076795013918 7.044581364829675 3.1667206989427834 0 0 0
400 1 22.855796788030588 4.229056873831914 0.8373819904313271 0 0 0
442 2 21.194782838290973 4.193994140518385 3.0760357698434264 0 0 0
544 3 21.086469967603115 4.591329161855314 1.072458953156264 0 0 0
550 3 22.151908386545696 5.5366617544525365 2.9388993319565797 0 0 0
595 3 23.91720694983094 6.7220696905793185 1.0456692393691929 0 0 0
546 3 20.186886661732494 7.586696434517373 2.7139129219025815 0 0 0
385 1 20.985510231601285 6.652807435939001 0.9756912137833362 0 0 0
459 2 23.68218166572992 6.851191757844618 2.804229829930528 0 0 0
127 3 28.710378758881127 6.786215718021258 0.050718026316529 -1 0 0
599 3 25.114138112693567 5.519056908961615 3.129862995580059 0 0 0
460 2 25.865472597623892 4.103550455723349 3.0301746008991874 0 0 0
598 3 26.104379103912482 5.1570716328670185 0.5314602435027347 0 0 0
604 3 27.606837204391162 5.814681350326402 2.432612291111737 0 0 0
403 1 25.875980948629515 7.0990468333964305 1.4877522001418386 0 0 0
600 3 25.235801482678742 8.165141327902498 3.133228574421994 0 0 0
10 1 -0.4361633603548429 8.923740906627287 0.9405882424884435 0 0 0
70 2 1.7348192670782487 8.965182954175651 2.922065389569643 0 0 0
148 3 1.5470033917508053 9.070079603150042 1.208765499846403 0 0 0
149 3 -0.06404912238956428 9.797949035744955 2.5965241054920507 0 0 0
135 3 3.2941963902180413 7.935183032245039 2.335251746950587 0 0 0
13 1 1.8199162477431998 10.935228929338034 1.495484048739597 0 0 0
69 2 -0.46290320065070456 11.653653749670342 2.4345315267956718 0 0 0
145 3 -0.5611007549811358 10.88879063942144 0.8017939757455965 0 0 0
154 3 2.513406516648921 10.32201369140377 3.2875831887354563 0 0 0
28 1 4.527396319064637 8.449381356081691 0.6268603308360212 0 0 0
203 3 5.41556012957507 10.191176350244382 3.2210263657059315 0 0 0
88 2 6.7407218646211104 9.059265252673574 3.2357257255856897 0 0 0
202 3 6.3895269564165025 9.11848602008297 1.3394980568180572 0 0 0
87 2 4.648367233197458 11.730035756828382 2.360314080566782 0 0 0
199 3 4.518667370824307 10.344555247679695 1.0274275769991996 0 0 0
31 1 6.559630183809816 10.956195691649356 1.220533440252469 0 0 0
208 3 7.856097156175958 10.527538978846708 3.400252194591018 0 0 0
46 1 9.781579284174795 9.171409461013361 1.9158686637417253 0 0 0
189 3 8.271009757003617 7.889066728126586 2.820848783905231 0 0 0
257 3 10.304934741061228 10.288307364214983 3.247825762362536 0 0 0
106 2 12.213338525134175 9.077410923986548 3.3166569207911634 0 0 0
256 3 11.901171796586132 9.517123586707218 1.5348032662662652 0 0 0
105 2 9.156851983317045 11.63645381347169 2.8517416726470506 0 0 0
253 3 8.816595047970756 10.749159979867123 1.2007202956319953 0 0 0
49 1 11.849911384444106 11.34251268386184 1.54457643001906 0 0 0
243 3 13.403575681059777 8.026831814387071 3.0404567171160806 0 0 0
370 1 13.584695169924313 9.041506677885774 0.7733300037631354 0 0 0
509 3 14.68051279259672 9.892080285437432 3.385889788408517 0 0 0
262 3 12.620068177839716 10.725032952092423 3.4817894571175385 0 0 0
429 2 14.239703246843604 11.699575544546883 3.5500165229734453 0 0 0
505 3 14.194151278819538 11.194023262604627 0.9474529695046534 0 0 0
430 2 16.214158752272898 9.145063920503675 3.1606642939838885 0 0 0
508 3 16.02023356587362 8.938275552473064 1.3877082230821531 0 0 0
388 1 19.161407877292824 8.825908853272585 0.7192439994506656 0 0 0
493 3 17.63332994456058 8.465879261644812 27.11525085385891 0 0 -1
495 3 17.886933929017854 8.650895213607978 3.0646844224698064 0 0 0
552 3 19.84079864149841 7.56846020724447 -0.21466771667322992 0 0 0
563 3 19.854552589920317 10.330095869300262 3.511144208433464 0 0 0
373 1 16.186420877614413 11.469568465168745 0.8617741947377209 0 0 0
514 3 17.20891524088559 10.963402089611462 3.3969038002782312 0 0 0
447 2 18.552429047192074 11.542687027897115 2.7879732522267675 0 0 0
559 3 18.239088940274787 10.66807540624677 1.0250508975893502 0 0 0
406 1 23.2429547133058 10.224268618629809 0.9586138192447673 0 0 0
448 2 21.075051170573385 9.354140016559324 2.8107673051490885 0 0 0
547 3 22.2649160431657 7.687508757988773 27.286648630038655 0 0 -1
549 3 22.69081468118634 8.355249707095519 2.253341786489947 0 0 0
562 3 20.761664148749524 9.828204435269127 1.1751118745343825 0 0 0
391 1 21.06700280893285 11.779039290717463 1.502560283165026 0 0 0
465 2 23.734210652595266 11.832427661020258 2.999989606191491 0 0 0
613 3 23.111628461137528 11.946314374073719 1.5598469185408148 0 0 0
617 3 24.86853111006881 10.634301671766497 2.919188607464416 0 0 0
466 2 26.41051709537744 9.248688690314397 2.6598379066125064 0 0 0
603 3 27.492696614457813 8.177839637805153 2.0639080012194047 0 0 0
616 3 25.798000971079652 9.811533957922562 0.8109732221050994 0 0 0
622 3 27.46414569712519 10.87760610196426 2.3916660900832576 0 0 0
16 1 0.49750742326339714 13.583757692040571 0.3111581494017861 0 0 0
150 3 1.0869034854068318 12.425770284142525 2.066816853475039 0 0 0
153 3 3.48342720366033 13.156525781427733 1.9409233222814346 0 0 0
778 2 2.0664563404351255 14.064516206676174 2.563296998102903 0 0 0
832 3 2.2473314515294143 14.142995974104151 0.26235702566630537 0 0 0
833 3 0.3941466202711561 14.691116177207972 2.233267250401833 0 0 0
838 3 2.736081631221634 15.540264088702124 2.6691020133028047 0 0 0
34 1 4.783861828199673 14.22439411799663 0.7687397408723282 0 0 0
204 3 6.003821455074865 12.754253002643663 1.9620384773745214 0 0 0
883 3 4.456714157552579 16.241710621732814 0.38092510767667487 0 0 0
887 3 5.253208153843169 15.29169273291718 3.183105429211313 0 0 0
796 2 6.764239865669537 14.431703966500143 2.925508554226891 0 0 0
886 3 6.802119580012154 15.141404408530953 1.3485666682760677 0 0 0
892 3 7.484350743933227 15.632018381172433 3.338598118393734 0 0 0
52 1 9.801468379700674 14.226746434164994 0.7162472636065635 0 0 0
207 3 8.26376843169173 13.094482762520538 2.4307189623137364 0 0 0
258 3 10.575854810169933 12.504305780426188 2.7607848084862816 0 0 0
937 3 9.576575365047125 16.669603604339816 1.4229951044654068 0 0 0
941 3 9.9384539348127 14.787111984031675 3.472572656671698 0 0 0
814 2 11.485181532524432 13.956483428593423 2.9258228370666823 0 0 0
940 3 11.224271195775419 15.145108607257303 1.5092805765794362 0 0 0
259 3 12.972996907149929 12.739798318554488 -0.4113557866179213 0 0 0
261 3 12.889140286607839 12.88925922804539 2.5383121595266043 0 0 0
376 1 13.185336175129477 14.338660438914903 0.8794408911547398 0 0 0
510 3 15.550519884339636 12.561588700214 2.830056605602186 0 0 0
946 3 12.85401819046406 15.255976055244389 3.3283072633886723 0 0 0
1189 3 14.671677459961902 15.749686232027116 0.825359902752852 0 0 0
1193 3 15.641693723380161 14.972565109527832 3.45134354010926 0 0 0
394 1 18.603796045675086 14.181983238721308 0.4761815618089036 0 0 0
513 3 18.005036507030102 12.977128159429572 2.205114983265412 0 0 0
564 3 20.00904535327561 12.628189115480609 2.5512621714128207 0 0 0
1138 2 16.631109828275864 13.94466473221867 2.8222382774281805 0 0 0
1192 3 16.809940454100357 14.66917679048555 0.41964945747277493 0 0 0
1198 3 17.78626426022263 15.433053457327262 2.7177836174070773 0 0 0
1243 3 18.789926302494415 16.06491410864448 0.5856606955673898 0 0 0
1247 3 20.151191929644273 15.397080727523413 3.15642784251182 0 0 0
570 3 19.8164030130825 12.774779774638827 -0.189064655479955 0 0 0
412 1 23.598032097129447 13.740030481021957 0.8603445506618062 0 0 0
565 3 22.47150567430159 13.101863540912053 27.25237501978073 0 0 -1
567 3 22.75908798858835 13.315333635419957 2.978141412716346 0 0 0
1156 2 21.22565340386553 13.959946883675455 2.8187880496819995 0 0 0
1246 3 21.405947719972904 14.024849184408744 0.8145970167490721 0 0 0
1252 3 22.59846576630246 15.835712785627091 2.6795225032760035 0 0 0
409 1 26.1412511888318 11.885862844343189 1.1943319955798322 0 0 0
618 3 25.089788957317786 13.027289866497728 2.168713388441771 0 0 0
621 3 28.14088181591123 13.129821089073564 2.046936639464927 0 0 0
829 3 28.659118443393698 15.295550257538792 1.017300992596386 -1 0 0
1301 3 25.022414322828226 15.526207344542886 3.110332779337187 0 0 0
1174 2 26.147261152029206 14.37692767939447 2.444875271953182 0 0 0
1300 3 26.014031776800266 14.849069781247229 0.8039145970636778 0 0 0
1306 3 27.012002635441608 15.67288342391915 2.941044913092842 0 0 0
721 1 1.8659114541901136 16.021817864234098 0.7714490837532277 0 0 0
834 3 0.8446940677302293 17.20524575480153 1.7170778470964474 0 0 0
724 1 -0.6342670471404142 18.797574684495896 0.03888781493090965 0 0 0
784 2 2.026015295598963 18.460082664452795 1.663574924838815 0 0 0
850 3 2.5774900610906157 18.92395488120243 0.3064590081604157 0 0 0
851 3 0.5972290357918018 19.722048640053803 1.7349262020878617 0 0 0
835 3 2.809026067363869 16.987654275999695 -0.7315137089864479 0 0 0
837 3 3.248892982460104 17.78877333995132 2.2932768243859902 0 0 0
795 2 4.335200459173441 16.59554430083668 2.698758326224445 0 0 0
888 3 5.801438436136732 17.831782678167816 2.6170152957523927 0 0 0
739 1 7.258806988064693 16.599481290089095 0.990886302640757 0 0 0
742 1 4.582908849472464 18.547521184428174 0.700726327639924 0 0 0
905 3 5.566517094704391 20.544489128734984 2.996986607896288 0 0 0
802 2 6.978357440266459 19.27500724160749 2.720752139128385 0 0 0
904 3 6.627474682333378 19.50948698436505 0.8376201745568086 0 0 0
813 2 9.265842569081313 16.29001741803819 2.7946051032264743 0 0 0
757 1 11.86553226692864 16.89348858423376 1.0079676633052224 0 0 0
942 3 10.932927428325472 17.1846023552863 3.0061915488165227 0 0 0
948 3 8.902112930329157 16.948085340279285 26.995977905937245 0 0 -1
760 1 9.90821623923383 18.530970587798375 1.5217604183806435 0 0 0
891 3 8.305586986099623 18.215370753477146 2.4565672877836886 0 0 0
959 3 10.40663215934825 20.004124566692706 3.577598231146087 0 0 0
820 2 11.909181445698877 18.883905570295944 2.958151672620548 0 0 0
958 3 11.552414899713721 19.263687925155633 0.23580084948542135 0 0 0
1137 2 14.396078893354709 16.418554070850753 2.6571946820798846 0 0 0
1194 3 15.520450394213341 18.138938686477477 2.2373513872211306 0 0 0
945 3 13.141227405342699 17.65874875671325 2.4888788303429616 0 0 0
1084 1 14.387535849204964 18.82037173079131 0.45459362920456314 0 0 0
1211 3 15.47333374821891 20.425214851032276 3.36765763813188 0 0 0
1081 1 16.656787936544333 16.563173225087713 1.2494228876388684 0 0 0
1155 2 19.099359015830935 16.378985564471385 2.045315939086347 0 0 0
1144 2 16.668093270401148 19.435619042059358 2.621060336557257 0 0 0
1210 3 16.766724195249918 19.77709552444641 1.0908370853210572 0 0 0
1102 1 19.100049963776627 18.874979893385177 0.8276838645848572 0 0 0
1197 3 18.34115604557166 17.99906057053158 2.019582445261226 0 0 0
1265 3 20.39223110246111 19.823826867736262 2.483294250826038 0 0 0
1248 3 20.670045018803243 17.36884863342738 2.1855765975201598 0 0 0
1099 1 21.738583640312015 16.3002694093405 0.9757757984865212 0 0 0
1173 2 23.96525659082476 16.797029361490353 2.379247623833407 0 0 0
1297 3 23.710341482091184 16.17025149517728 0.5466382966910797 0 0 0
1120 1 24.48516434081753 19.069885024281692 0.5596261071163999 0 0 0
1162 2 21.49802636900546 18.655968889321425 2.202609587967725 0 0 0
1251 3 22.945442741844307 18.057828749155952 2.299891374223175 0 0 0
1264 3 20.944140651398595 18.7243178735548 -0.024252940334167694 0 0 0
777 2 -0.5318647431664063 16.09843419392043 2.263694909275706 0 0 0
1117 1 26.807869610571725 16.629885362317083 0.7096589354816989 0 0 0
1302 3 25.97567932977432 17.57558546120907 2.0928751200284923 0 0 0
1319 3 25.081063271178916 20.203089082370845 1.9634834258650788 0 0 0
1180 2 26.997392100797867 18.976987002457314 1.9527948194993665 0 0 0
1305 3 28.152414615057143 17.953728573133766 1.3135328951556033 0 0 0
1318 3 26.445350550657814 19.05225091712138 0.20570442454338944 0 0 0
856 3 2.64786529676852 19.783098337921725 2.784288837854703 0 0 0
727 1 1.6028746282494497 20.770535779704034 0.29996921187317116 0 0 0
730 1 -0.24123883302485605 23.69269943578545 -0.25083764225069644 0 0 0
783 2 -0.2317438004933745 21.486195397057244 1.4410594082924453 0 0 0
790 2 1.4925653605417257 23.993060489126023 1.820815777677852 0 0 0
852 3 0.954335199657822 22.4735043891493 0.9185972020510778 0 0 0
868 3 1.598797191801565 24.44795354043515 -0.3936870426781316 0 0 0
869 3 0.47986364013752825 25.37404273918402 2.260761135034713 0 0 0
855 3 3.1655263204262623 22.615217848728054 1.752326936524267 0 0 0
901 3 4.293525237803282 20.652456550631218 0.6341648010944669 0 0 0
910 3 8.05356617167703 20.716391705189213 2.975472489669311 0 0 0
748 1 4.462996208707868 23.676617186381236 1.2944959494019646 0 0 0
801 2 3.959545442734491 21.115705559527346 2.4627005596894436 0 0 0
906 3 5.84420559276815 22.553112259307582 2.0006199683724737 0 0 0
745 1 6.143145290018275 21.269700526529697 0.5730513316563242 0 0 0
808 2 6.918723335845885 24.2025432300242 2.5982290275673714 0 0 0
922 3 6.037020055433605 24.24898931230327 -0.20060935033585547 0 0 0
955 3 9.341096982481185 20.723411454232778 0.7168522957403147 0 0 0
766 1 9.016446023337288 23.90765693171039 0.37288902999763174 0 0 0
819 2 9.322783336357977 21.555832699069875 2.548206484996546 0 0 0
909 3 8.267073448142826 23.06888597172389 2.2493190242375856 0 0 0
763 1 11.90984149183786 21.3005687822523 1.2033356755566593 0 0 0
826 2 11.608606242033108 23.93170173849359 2.9285283849863535 0 0 0
960 3 10.824660063078293 22.437553188917747 2.8639780649823106 0 0 0
976 3 11.488570632024908 23.816526007231946 1.0470900476724183 0 0 0
964 3 13.050767178690608 20.31499527015211 3.0364644248482535 0 0 0
1207 3 13.467971511401945 20.412774068061516 0.551154148834381 0 0 0
961 3 12.837229267307182 22.55413446327358 -0.3639649677650038 0 0 0
963 3 13.616042322342496 22.755680108821565 2.0534538895517955 0 0 0
1090 1 14.377354586903257 23.692851614646816 0.5281365398122024 0 0 0
1143 2 14.438686937799353 21.73013033621732 2.8105615665193717 0 0 0
1212 3 15.895068038541272 22.58272209877145 2.264230900347633 0 0 0
1216 3 17.89913716213932 20.061629736288378 3.365406677454816 0 0 0
1261 3 18.766037931435886 21.627665612637653 0.9748867757707924 0 0 0
1087 1 16.715705317207277 22.113172082380224 0.21815472042586093 0 0 0
1150 2 16.554445759861608 23.978584641079603 2.5487869978416478 0 0 0
1108 1 19.079587383223615 23.9043279696622 -0.21366330235672226 0 0 0
1161 2 19.053105114040953 22.536219414065343 2.114834700771568 0 0 0
1215 3 17.93907000411652 23.629760060367172 1.726431708479621 0 0 0
1266 3 20.66198533734219 22.65173540542365 1.715776066402734 0 0 0
1272 3 20.69155283787375 23.084715627415676 26.992405007181283 0 0 -1
1270 3 22.61853044413059 20.176428990975197 1.5334262326164518 0 0 0
1315 3 24.848314744028958 21.62329281245917 0.00949771518807252 0 0 0
1105 1 20.953963680945208 21.124497558302696 0.3893353686522367 0 0 0
1126 1 24.738715714569594 23.86234645840719 -0.31647397866065824 0 0 0
1168 2 21.49637040735833 24.259425338689393 2.115936860416033 0 0 0
1179 2 23.899340670899335 21.65140356920608 1.2953161067855383 0 0 0
1269 3 23.089222827532474 23.190102823965844 1.215900201005479 0 0 0
1282 3 21.629260638040208 24.96512051055285 0.15194086329134593 0 0 0
847 3 28.290741205102126 20.844591156650882 -0.17676292375675162 -1 0 0
1324 3 27.779578326873253 20.5209176209862 2.2550586922747557 0 0 0
1123 1 26.699012324172337 21.684427138273627 -0.4713024485897792 0 0 0
1186 2 26.95202481896086 24.366697915780414 1.3867802065861383 0 0 0
1320 3 25.87737663889076 23.102879016942314 1.5886732459196806 0 0 0
1323 3 28.283247829226767 22.931004104015702 1.0992369798971655 0 0 0
1336 3 26.65001593731337 24.748925228581776 -0.2084784786969044 0 0 0
733 1 2.1721519843246466 25.98794958711826 0.2530120468341669 0 0 0
736 1 -0.19738664727835875 -0.1609485883843247 0.20756881185335108 0 1 0
789 2 -0.33490907198961306 26.741521055839943 1.9664612847313587 0 0 0
870 3 0.6316571948677125 27.95081810605087 1.6455725900920193 0 0 0
874 3 2.9598546906749066 25.205447588695623 2.415390831021154 0 0 0
876 3 0.37038954035958493 28.665121497062888 26.377401577029715 0 0 -1
873 3 3.0109828540521963 27.739605241899728 1.9021974986827717 0 0 0
923 3 5.2360596861108935 24.648396043093857 2.688184646362825 0 0 0
754 1 4.887879965008142 28.313677774925637 0.1086484945319044 0 0 0
807 2 4.294110343283637 26.365859720028354 2.179866831748251 0 0 0
919 3 4.30761623533052 26.232194961575285 0.6012060118241138 0 0 0
924 3 5.719074212679762 27.339959292265373 1.9148309012794469 0 0 0
751 1 6.140644108079659 25.74351714850105 0.5866526938538563 0 0 0
928 3 7.438797216141529 25.62278553378041 3.0005699129137207 0 0 0
94 2 11.94643644219217 -0.7711239774263458 3.3117468963441086 0 0 0
977 3 9.985306622194681 24.795280394997086 3.169610673371148 0 0 0
825 2 8.934570064640798 26.141783609896414 3.293460102968875 0 0 0
925 3 8.142724164036382 27.79116177659507 0.3876828935729495 0 0 0
927 3 8.348062963640498 27.81381893423226 3.112892614692598 0 0 0
973 3 8.275394958074923 25.95076274563167 0.8826759362154151 0 0 0
769 1 11.96014452672286 26.19628554297536 1.1266355382403113 0 0 0
978 3 10.342890005342433 26.421559471338544 2.2909267410518273 0 0 0
1229 3 15.27831897551313 24.70392977329755 3.589954678272181 0 0 0
981 3 12.751870875126944 28.031792418510722 2.1818223653718656 0 0 0
982 3 13.05772576467157 25.19574452093437 3.11799995044441 0 0 0
1096 1 14.16682003217241 -0.7109056715320795 1.3656260322123077 0 1 0
1149 2 14.218940587948586 25.928410566948244 2.413552764566176 0 0 0
1225 3 13.483852857420974 25.351004196212784 0.6909915445132677 0 0 0
1230 3 15.479849024949058 26.91451751880306 2.764687702617192 0 0 0
1236 3 15.660174450694413 26.920598201324044 26.76132927576314 0 0 -1
418 2 16.334719625869795 28.55497439399672 3.3629381911989604 0 -1 0
1228 3 15.596012480324827 24.896463849104503 1.185415947697085 0 0 0
1283 3 20.237605560129616 25.064039649657907 2.1446029558507447 0 0 0
1093 1 16.75033116941438 26.569652514162982 1.1796642223144107 0 0 0
1234 3 17.52083398759488 25.58402071371421 3.2457515650085793 0 0 0
1114 1 17.850215460302053 -0.3577735617679825 1.0285991091336035 0 1 0
1167 2 18.875413218448937 26.499788896480485 3.027594666256896 0 0 0
1233 3 17.634177939547772 27.791864312994818 2.6249171672583804 0 0 0
1279 3 18.44852033934588 26.38563574856754 0.2752589549691893 0 0 0
1284 3 20.1220739069764 27.61887158871425 1.8088173633350508 0 0 0
1111 1 21.480948199207088 27.03079089283915 0.4040989668177333 0 0 0
1132 1 23.887931975955457 -0.7671187869691778 0.6794956341927059 0 1 0
1185 2 23.804950823986847 26.401311820437424 1.7754141464085382 0 0 0
1287 3 22.66446507143968 27.69110461059588 1.7029593518531567 0 0 0
1288 3 22.632164807404312 25.363293081332106 2.227848748562572 0 0 0
1333 3 23.85461166299387 26.40749445783228 0.09739084450762403 0 0 0
454 2 26.186680944819454 -0.7256570288220227 2.246858725866507 0 0 0
1337 3 25.203532634260473 25.10482633192959 2.6423247910147234 0 0 0
865 3 -0.042439499531826796 26.245982689861464 0.04236475231939285 0 0 0
1129 1 26.679317160897288 27.64476555957765 -0.013890685652127255 0 0 0
1338 3 25.3526232002519 27.464239791682612 1.567342899453041 0 0 0
1341 3 27.851230413923314 27.987932156602174 1.6699636790975863 0 0 0
1342 3 28.012185942685708 25.36559123712102 1.9312491577304116 0 0 0
3 1 1.7061242716911034 1.3085963620532652 4.824465574734358 0 0 0
59 2 28.71081558973231 1.3025961640818613 5.587816220296272 -1 0 0
60 2 1.5603722547075067 -0.7523807174170687 6.035038980721627 0 0 0
116 3 2.5918834586385486 0.6118375590400493 6.222415126077169 0 0 0
119 3 0.11234263370907305 -0.005607703455242974 5.397851399139407 0 0 0
126 3 -0.09374489955687793 2.2428976624157064 6.551202205796233 0 0 0
579 3 -0.4830320598601172 2.0181055807981485 4.225224842855811 1 0 0
2 1 4.375070859741246 28.573152833832633 4.3190180076891345 0 -1 0
21 1 6.252003828806362 0.990638662093654 4.334181930122689 0 0 0
77 2 4.1626350150577345 1.6880683970631076 6.966977713385476 0 0 0
111 3 4.740037541767215 1.7083410167657798 5.480896582851532 0 0 0
173 3 4.832475251647803 -0.25824306777063 7.077430848378075 0 0 0
180 3 5.697321398371596 2.4451511519684717 7.744314467199516 0 0 0
78 2 6.707158334821438 28.51634944704557 6.6724472580856045 0 -1 0
170 3 7.2396006620813615 0.2578323831125411 6.048970484602028 0 0 0
20 1 8.79114531939623 28.69516729888466 4.949180846756524 0 -1 0
95 2 8.58847761066673 1.483714894659208 6.4032145833813665 0 0 0
165 3 9.333617666475426 1.025422249233628 4.5503124888339235 0 0 0
227 3 9.85178798412749 -0.47059553489506406 6.5451552594806754 0 0 0
39 1 10.92188525985037 1.111313329598728 5.134881042482527 0 0 0
96 2 11.26606938056563 -0.6105514442446089 7.074795804825252 0 0 0
234 3 10.279758774425737 2.245152220895023 6.324915087706217 0 0 0
178 3 7.889944037266352 2.7063059670851133 6.517903660035776 0 0 0
219 3 13.834035983246077 2.294519431678481 4.5825845514326335 0 0 0
224 3 12.258767538374336 0.5931836398592842 6.750312194459673 0 0 0
419 2 13.641829033549627 1.2725676753819224 7.54695790355245 0 0 0
479 3 14.976109773239868 1.098534876888399 6.717870532096123 0 0 0
363 1 16.0428108353501 1.5761968254515497 4.581332637453222 0 0 0
476 3 17.15762949718707 1.0075366383676485 7.099278053613779 0 0 0
437 2 18.770296536270077 1.7952448962612033 7.191405675562993 0 0 0
471 3 18.400321164784565 1.298447458707792 4.340374887625377 0 0 0
533 3 19.769876685549107 0.34083803424173853 6.5515111611615025 0 0 0
381 1 20.975587360109262 1.7130345653663257 5.097704869621802 0 0 0
380 1 23.133221134548847 -0.4783737175855244 4.359538185907786 0 0 0
438 2 21.23277396038487 28.598447745644574 6.451906874997303 0 -1 0
455 2 23.512604337004667 2.2740102752474853 6.079276144943662 0 0 0
525 3 23.80755812512135 2.6252109098895904 4.391839424342578 0 0 0
530 3 22.41601920622999 0.2471727945927693 6.416089268609825 0 0 0
587 3 24.767588876831766 0.6702498269082668 5.60204748542358 0 0 0
398 1 28.681484368699095 -0.43286829207231003 3.8647065896378408 0 0 0
399 1 26.095305684943654 1.609917058469084 4.349400289018551 0 0 0
584 3 27.337403762210233 0.1481015663371743 5.188929351554279 0 0 0
594 3 24.587045175688484 2.4329220527087707 7.061949936953188 0 0 0
9 1 1.3819583019234676 6.214950522839164 4.223311627176286 0 0 0
66 2 2.042117104499562 4.517278988985923 6.402424356725061 0 0 0
110 3 1.495413305781367 3.782899301722522 4.74970572946822 0 0 0
134 3 3.109285441526546 5.387111422589838 5.371234365761134 0 0 0
137 3 -0.08602687283805077 5.092446391729743 5.88751181107833 0 0 0
124 3 3.212656359510471 3.0840847431955676 6.928492375247629 0 0 0
65 2 28.577692207033287 6.65031930218678 6.696613932801824 -1 0 0
144 3 0.16133885202595555 7.918667551570252 6.980663730507383 0 0 0
597 3 28.75454176678524 7.614414959088743 4.174980890502153 0 0 0
8 1 4.699863931789615 3.644439200824465 4.825604885213786 0 0 0
27 1 6.6789205247627805 6.304042142641222 4.528629732195311 0 0 0
164 3 7.224929072614917 3.6878345338021035 4.418159194691593 0 0 0
191 3 5.704681526427006 4.792341502200827 6.130419231545783 0 0 0
84 2 6.714354062991515 3.734759188288452 6.450512896602261 0 0 0
83 2 4.0133860047867245 6.69591226356738 6.161368305632616 0 0 0
129 3 4.492619525623739 7.4434492074174905 4.837719503048346 0 0 0
198 3 5.209841425467299 7.809589769490312 7.347883253806154 0 0 0
26 1 8.7069540716415 4.343860608580962 4.886449312951173 0 0 0