LAMMPS data file via write_data, version 2 Aug 2023, timestep = 120, units = metal

28800 atoms
4 atom types

1.9693813217207037 54.07061867827932 xlo xhi
1.9693813217207037 54.07061867827932 ylo yhi
2.3334568123171486 64.06654318768288 zlo zhi

Masses

1 24.305
2 28.0855
3 15.9994
4 4.002602

Atoms # atomic/kk

1 1 3.270592226682843 5.13135479219801 3.276673625765898 0 0 0
58 2 4.926350560698295 2.6173575556572644 5.1539308694425685 0 0 0
109 3 53.50967586870389 2.6820757729891604 4.536587991191229 -1 0 0
112 3 5.23381479914048 53.51694895488162 4.655164276991089 0 -1 0
113 3 2.604580603912463 2.3641223994043195 5.757129685165557 0 0 0
114 3 3.1015165173243977 5.7685151131465755 4.264315441197935 0 0 0
118 3 5.507758890849636 4.309287697044145 4.595595066734903 0 0 0
120 3 2.2824375014482268 6.45679281824131 3.37819520118409 0 0 0
115 3 4.65943938556828 4.586220587045272 62.98430848339743 0 0 -1
117 3 4.840615836623307 4.591682033562824 6.347387353515667 0 0 0
73 2 6.536119210225297 4.071526408973449 2.947652725679183 0 0 0
75 2 7.257889779796143 4.985935402657072 6.124330632057468 0 0 0
163 3 6.300955389500203 3.195609924371694 4.031020345368599 0 0 0
168 3 6.623700833284037 4.433798405678374 6.500904013129702 0 0 0
174 3 6.68642052383862 5.2404576533710046 2.3378653529151743 0 0 0
19 1 7.737172201887495 5.0773164272937645 4.013959430659041 0 0 0
76 2 8.505531142106227 2.1208201173346466 6.342531074890488 0 0 0
23327 4 4.920112821180595 3.839750434788536 4.931368598659947 0 0 1
93 2 11.542543542406754 5.152553686088947 5.895461008432056 0 0 0
166 3 9.214548905479525 3.0098279741859963 2.536678754822564 0 0 0
172 3 10.161522197271301 2.843487524217833 5.1952689797002956 0 0 0
217 3 9.736284581513722 3.537256391152921 3.544565899136207 0 0 0
228 3 13.123264842743506 5.5929771630680865 3.4925403952727776 0 0 0
222 3 12.916730231878471 4.219461460520874 5.151716451876922 0 0 0
169 3 9.391069997089343 4.83153018604288 2.634460560259953 0 0 0
171 3 9.267104319603728 5.06000753029574 4.368686229735363 0 0 0
37 1 12.498260787219447 3.733626368517778 3.9346034048366976 0 0 0
94 2 13.849586267526364 2.501908820350727 5.675169761576294 0 0 0
220 3 13.8238805583296 2.3640522743081984 5.136814635833908 0 0 0
415 2 15.541712820052243 3.315392592696437 2.3842649195950103 0 0 0
417 2 15.347879343907186 4.58788189774431 5.925140417285284 0 0 0
469 3 14.21076359954672 3.146007595181631 5.052236549351789 0 0 0
225 3 13.61736734441454 5.205095528560853 5.926234007922993 0 0 0
418 2 17.31953920327336 2.784251094745578 6.249326290835073 0 0 0
361 1 17.647645127871716 3.572845979640118 4.689296881808614 0 0 0
472 3 16.2211379337557 2.6998556576974693 5.322971702894312 0 0 0
473 3 16.6629138828672 3.8559298030780265 5.164432176214732 0 0 0
474 3 16.273500962500197 3.9559988691797536 4.9292798404861715 0 0 0
478 3 16.78450642655055 3.8199290183431254 5.493737860857187 0 0 0
480 3 17.315228708737607 4.930897300474298 3.5598585106239016 0 0 0
433 2 19.291821570667263 4.3741723139986455 2.6117278038479097 0 0 0
435 2 19.058548892341452 3.374675188884173 5.909578923289781 0 0 0
475 3 19.40834463532309 4.520506462065491 63.48438014379179 0 0 -1
523 3 19.32542065067654 4.697044499114277 2.4827489051813743 0 0 0
528 3 21.31481010445758 4.253369359074544 5.61973737728971 0 0 0
534 3 19.49084939859362 3.7367056804478 3.4386827505317616 0 0 0
526 3 22.051410227628914 2.1017998205576083 4.42554114391256 0 0 0
532 3 21.279685283796393 3.6167401066889378 4.433085864834339 0 0 0
379 1 21.91811759166706 4.834692657077181 2.911773042016533 0 0 0
577 3 23.24820487699038 5.038216355461363 5.020568070742019 0 0 0
581 3 24.94890072626847 2.196170845097801 4.980117252394903 0 0 0
451 2 24.243810017202964 3.2887687237390004 2.5033752445337005 0 0 0
453 2 23.275136610784994 3.2680808957670386 5.492591611674571 0 0 0
582 3 25.799683725783286 4.048702416288564 5.574085339218209 0 0 0
588 3 24.915005174841667 4.015551107158476 63.61906896174249 0 0 -1
397 1 27.03209933322955 3.486955438654025 3.9031329690144005 0 0 0
454 2 25.528488262079385 2.4698043975311057 5.5283018783644495 0 0 0
531 3 23.483826338956426 4.306954759837514 4.630426850339631 0 0 0
580 3 27.184082798901 2.919729193918613 5.329235082729158 0 0 0
777 2 27.96050591566287 4.012523318225686 6.0280243779479585 0 0 0
829 3 28.92873057591142 3.5302100608109113 5.335472837449541 0 0 0
833 3 29.262484088188366 2.591444192527292 4.806319618595006 0 0 0
834 3 30.140770241378643 4.976982583052243 5.447233620256448 0 0 0
840 3 30.06874873912025 5.110688356217122 3.0307454687884126 0 0 0
583 3 27.849515311180813 5.907317696107807 63.62143658981492 0 0 -1
585 3 27.168913050186625 4.435523181728126 5.263743000431522 0 0 0
778 2 29.66288642322651 2.6106184581803857 5.026517552140005 0 0 0
721 1 30.816301243093122 4.583476181914673 4.623439095794768 0 0 0
795 2 33.04228773743322 5.229859613774449 6.466085046918574 0 0 0
883 3 32.25455801452383 3.9035857481633736 4.922165973241148 0 0 0
24045 4 29.950219488345695 4.432284112189285 4.44868153152529 0 0 1
835 3 30.764891387421518 4.372504392111749 3.362868527386117 0 0 0
837 3 31.582238877437653 4.2535780107039844 6.097768959914352 0 0 0
888 3 33.603156175610366 5.3343215619447335 4.304943694234758 0 0 0
894 3 33.73805513420154 5.324987513955191 2.951281126173499 0 0 0
739 1 35.57042882071807 4.64642060976421 2.890918737536513 0 0 0
813 2 36.50803748427655 5.1502796719729975 4.7604893300816356 0 0 0
886 3 35.356933472493765 3.4962495649888634 4.451489558559765 0 0 0
892 3 34.62066712349638 1.980611034837562 5.6362926381178955 0 0 0
811 2 37.48261206384694 3.8343347435749595 64.05300442527941 0 0 -1
937 3 35.8989377529999 4.641067497983884 4.6304916504913285 0 0 0
941 3 37.40974018399808 2.37164316232338 4.78557479842086 0 0 0
757 1 39.04948365041464 4.649746904648235 3.341481214182557 0 0 0
24043 4 41.31691286011422 2.579505805938142 4.93869012448856 0 0 1
940 3 40.578800969719076 3.3464920127915008 3.5107581113660915 0 0 0
942 3 36.71472492612047 4.977327377477449 3.842125280305679 0 0 0
946 3 41.010041037539835 2.6100915887792 5.300370795337825 0 0 0
948 3 38.067081051017055 3.7782904806076987 2.6610327894456103 0 0 0
945 3 39.535433071892086 4.219174543183078 4.12629165023538 0 0 0
1189 3 40.76653532690955 3.0735676289520177 3.4334961729401248 0 0 0
1192 3 42.907336468051824 2.5730361786387808 2.7333044208205974 0 0 0
1194 3 42.087664617109446 4.754528622868346 5.861766405528941 0 0 0
1200 3 42.762255186608186 6.202914621924581 3.367603527302422 0 0 0
1081 1 43.45117221365765 4.70615377871962 3.7211840886545793 0 0 0
1135 2 40.16364165998789 3.9302497564170027 64.03695956702128 0 0 -1
1137 2 40.72343706567713 4.515769142891233 5.554954780505498 0 0 0
1138 2 44.14416258537325 2.381309185120976 5.158660136971498 0 0 0
1153 2 46.0152765765463 3.1836486452990096 2.863483373851998 0 0 0
1155 2 44.96079814746077 4.952907564215989 5.047273379465528 0 0 0
1243 3 46.27748006587552 4.503376714614224 4.00985481401146 0 0 0
1248 3 46.09057101591248 5.959407115000428 5.447917679604495 0 0 0
1254 3 47.28520995017763 5.978764964825351 2.531876852342752 0 0 0
1249 3 48.77467550592532 5.122846826332728 63.85704526173087 0 0 -1
1251 3 49.6428094491671 4.264991846222339 3.7629054537164794 0 0 0
1156 2 46.57472222086537 2.2378090703958464 5.371842289469446 0 0 0
1173 2 50.25298681604617 4.183832380596568 4.718397264341689 0 0 0
1246 3 48.18155067405067 3.393717898247128 4.875238162112132 0 0 0
1297 3 51.37034348084941 5.200697371948412 3.3289837408924923 0 0 0
1301 3 49.24804949610353 3.280732397247064 5.226571629863487 0 0 0
1252 3 49.64768376793394 3.4594811201700146 4.932778862600274 0 0 0
1099 1 47.65496418238491 3.9294601324131726 4.030219265259344 0 0 0
57 2 53.25534872979738 3.1399804476533006 5.7751677256453515 -1 0 0
1303 3 53.5970789072125 5.145682247026418 63.48332716638491 0 0 -1
1305 3 2.0656138313837236 3.800959888171227 5.577232123549601 1 0 0
1302 3 51.9350720702955 5.520905364159771 4.790104905899715 0 0 0
1308 3 49.69156733342224 5.249484967570504 2.388786442901603 0 0 0
1117 1 52.09116250785334 4.070080796761409 3.4957801267562014 0 0 0
1172 2 51.58298497695541 2.510184925431124 3.1845005649306604 0 0 0
1300 3 52.176606510874564 2.3910347066336954 4.731665380253466 0 0 0
7 1 4.535658454260662 7.615703359657499 2.8940039803914703 0 0 0
63 2 2.647716392708332 9.590521438362547 4.470305248463813 0 0 0
4 1 53.77376282304705 5.453034662062661 4.627036625716249 -1 0 0
62 2 4.924392179305539 7.299800435715397 2.3937355172625336 0 0 0
64 2 3.980462706237872 6.923977429301262 4.671872496299243 0 0 0
130 3 4.305518521660043 7.2222494281297 3.6413139100605205 0 0 0
127 3 53.909541152912674 7.661967912429303 5.03473834006702 -1 0 0
25 1 9.193567492045219 7.771362116904945 3.7349051788190453 0 0 0
81 2 6.0985609102352 9.280596154009768 6.214882989677455 0 0 0
22 1 6.855770958854982 6.8466213690778135 3.8166683948542395 0 0 0
181 3 6.355762160028179 9.24991892530418 4.882636910673166 0 0 0
80 2 8.610649363976439 6.1661663060783045 2.5695470203203366 0 0 0
82 2 7.6640370595905285 6.113250544133339 5.7354215228350585 0 0 0
184 3 8.76356092626748 5.662539933209592 2.4481268044073827 0 0 0
97 2 10.817978755258178 8.780234771510045 2.4411727177717046 0 0 0
99 2 10.467096275166874 9.553322367412678 4.751755453977125 0 0 0
235 3 11.234380963829613 8.8209284116488 2.6403944683143243 0 0 0
40 1 10.076259019404455 6.671645620113523 5.022308583418763 0 0 0
43 1 12.13748320210186 8.136891612212418 3.5105193668632277 0 0 0
423 2 15.361717209241517 7.889553743989075 5.575462868167603 0 0 0
238 3 12.387711525234229 6.743129560434936 4.228457182483658 0 0 0
244 3 13.848079856732245 8.423214556709095 4.730077850240136 0 0 0
100 2 13.544559823683889 6.9281012964982525 4.494412315453746 0 0 0
223 3 15.333184089665362 6.15177612413732 2.975551403816921 0 0 0
487 3 16.348560007864364 7.724605316711156 3.69245644271685 0 0 0
364 1 14.681204966233892 5.124703656723794 4.703292211308834 0 0 0
367 1 17.396079509686288 7.902279086917791 2.684449481035485 0 0 0
439 2 18.79891181102568 8.736044342900225 3.1478425227175957 0 0 0
490 3 16.891915580274137 5.372340366383695 3.605778305902469 0 0 0
496 3 17.85860961322556 7.685028811281752 5.015019298762272 0 0 0
424 2 17.937628737762466 5.397540766099519 5.877676990861691 0 0 0
477 3 19.015625583296984 6.219346696324158 4.72660275260742 0 0 0
441 2 19.37823041395875 7.687758327688172 5.587344717029179 0 0 0
385 1 21.771622529660167 9.63246951184193 4.262407082548991 0 0 0
541 3 18.783227809788187 8.210027930166778 4.568755440022983 0 0 0
545 3 21.396061208363573 7.159716610898045 4.387331250318986 0 0 0
382 1 19.448752084281523 5.853211897560735 2.989254787168621 0 0 0
529 3 22.57248679800316 6.666726060062373 63.909671406563405 0 0 -1
544 3 21.47703900285259 7.15210956368341 4.19656240901919 0 0 0
440 2 22.19893013779105 6.598939422874377 2.790996213603393 0 0 0
442 2 21.966634509737514 5.79553703076307 5.761696242507187 0 0 0
459 2 24.54081367604061 9.436137321763411 5.031525379370375 0 0 0
403 1 26.773302799140552 8.522255254308629 3.337508148526246 0 0 0
595 3 24.482312532136348 8.870012987460285 3.5245040476083256 0 0 0
400 1 24.60265745413926 6.749087629103193 4.202287700742433 0 0 0
598 3 26.06989702693244 6.997481271210538 4.237286997760457 0 0 0
460 2 25.590508726858562 6.646057702835891 6.295539942564349 0 0 0
783 2 28.592554817136445 7.676453523761918 5.560551848170249 0 0 0
847 3 28.219548713700433 8.388240426709139 4.942019891992145 0 0 0
724 1 27.270060488167257 6.182054424715723 4.061721935555373 0 0 0
851 3 29.478277672474707 7.41599289625173 5.244222190472713 0 0 0
727 1 30.217969823608456 9.140938837534113 3.4136573257965184 0 0 0
801 2 32.026849723670225 8.1183264426583 6.342161303626314 0 0 0
784 2 30.424741355597128 7.30711486756637 5.115397891648959 0 0 0
850 3 29.236569118914343 6.104368416025129 2.44618843988457 0 0 0
742 1 32.77150773472773 5.785844489527818 3.661566786124693 0 0 0
901 3 33.94607148983999 7.684909821213071 4.913565360929997 0 0 0
745 1 34.00125579440523 9.301261520754444 3.7732337637030673 0 0 0
802 2 34.90217761300886 6.785005530774008 5.544758701114464 0 0 0
904 3 35.07330893027962 6.122967068476072 4.628115795194922 0 0 0
889 3 36.43005234592016 6.740038391611929 3.694986625541837 0 0 0
891 3 34.676761744082874 5.956613809100781 5.12899640558093 0 0 0
819 2 37.43775257224166 9.369378453135973 4.503826800270909 0 0 0
763 1 39.85305838417529 9.749804590599485 4.469516577017291 0 0 0
760 1 37.87249237863947 6.158532807831897 3.021651715958174 0 0 0
955 3 38.484072863564165 7.3786080260861056 4.997662811444629 0 0 0
818 2 39.406839771391574 6.860820566784421 3.0241151880371597 0 0 0
820 2 38.23097570260514 6.994604833647227 6.166892070581989 0 0 0
958 3 38.20740173784511 6.111537881579848 3.262663203855239 0 0 0
24402 4 39.59461308346533 8.920907955349113 4.761149690835771 0 0 1
1087 1 43.05685235382185 7.745200975341501 3.7484887263615767 0 0 0
1141 2 40.256612418782055 7.598546284139285 2.3366958836124665 0 0 0
1143 2 40.61939815239145 8.647380983452464 5.043717241548674 0 0 0
943 3 41.52667809965884 6.206141320137114 63.4695720478929 0 0 -1
1207 3 42.262746139724314 8.636427672591466 3.7504579328425 0 0 0
1211 3 41.30144813654492 7.451611916941807 4.7924511571001736 0 0 0
1084 1 40.41759104927035 6.706469366863635 4.634285179448267 0 0 0
1142 2 42.338387545068336 5.57863912097533 2.3630814811666796 0 0 0
1144 2 42.78330133103038 6.554544957640356 6.178439543969842 0 0 0
1102 1 45.96068607767782 5.469945591625365 4.027721638575968 0 0 0
1161 2 44.871508269666826 7.990439947915235 6.1970767281452215 0 0 0
1210 3 43.70819995165863 5.437948912075722 2.5053545718212504 0 0 0
1195 3 45.11430442659161 6.84397053598081 3.755171578364636 0 0 0
1197 3 44.82838797404433 6.781317284470828 6.2520010078490476 0 0 0
1261 3 44.73001308551 8.778395623943318 3.796119780818041 0 0 0
1265 3 46.50243732204528 6.981858654725482 5.230463646553076 0 0 0
1162 2 48.40584736242213 6.318378094049761 6.0267454087004015 0 0 0
1264 3 46.6228059961245 5.547511172545425 4.786429344151602 0 0 0
1270 3 48.891667985104704 6.94982785479321 4.644134754947998 0 0 0
1315 3 48.78962950822543 8.640682158037858 3.4821191785047474 0 0 0
1120 1 49.016433622877706 6.728040592155294 3.268495087464075 0 0 0
1177 2 49.170327288830045 8.919746046157432 3.0469710875739975 0 0 0
1179 2 49.9679982054405 8.756314127052269 6.363418824621038 0 0 0
1105 1 47.818341402345624 9.359770082857125 3.8042942755398177 0 0 0
24400 4 52.01843851571836 9.931572498624977 4.726060364750148 0 0 1
24397 4 52.327550715932155 6.182117627925346 4.305275490356131 0 0 1
1178 2 51.91160624094437 6.626134843160355 2.959849598164856 0 0 0
1180 2 51.89752633016257 5.7060167921034015 5.590705154859326 0 0 0
1318 3 50.9254788307863 6.658689632168651 4.024125525022639 0 0 0
1324 3 51.758320245592984 7.667926162109078 4.522125835865439 0 0 0
1123 1 51.84426319854546 8.448585049745251 3.6070574800488364 0 0 0
10 1 2.963766574470518 11.607844634136631 4.183290045750357 0 0 0
68 2 4.945110821262176 11.63403196509403 2.743712893722392 0 0 0
70 2 3.6978115908215505 9.653695850432978 6.18466108742628 0 0 0
132 3 4.588646571273035 10.463572744870442 4.15215780862029 0 0 0
138 3 2.6169468632847033 8.964073741031612 3.705735842228837 0 0 0
148 3 5.554866600233515 9.947587437746325 3.876240976044385 0 0 0
149 3 3.7856566075611244 10.841789715544193 4.745622220356597 0 0 0
133 3 4.147013585536135 9.071344616385225 2.5548664187924746 0 0 0
154 3 4.481891482932982 11.54690115921513 5.049287034588659 0 0 0
192 3 8.733379106088908 8.190408493614495 63.123681668043524 0 0 -1
86 2 8.662095773019056 11.00538053797246 2.9171834033274355 0 0 0
88 2 8.929616913984344 10.480947074970478 5.6157600651273984 0 0 0
28 1 7.178257311651374 10.59387303333604 3.448728268389763 0 0 0
135 3 5.440789775889954 9.991347842366299 4.307994726831775 0 0 0
186 3 7.49342195289748 9.114490224549263 4.313333972225528 0 0 0
46 1 9.831080233602801 11.300226791532731 3.0940218728806896 0 0 0
187 3 8.527415108581293 9.753839807394797 3.8088624609803925 0 0 0
189 3 9.769169948064114 10.04718383654021 5.399201631135953 0 0 0
202 3 9.494566217875732 11.061283247975897 2.9153334129356114 0 0 0
240 3 11.118755466016248 10.680817797714962 5.6895647529760165 0 0 0
246 3 13.29966868933207 8.761560622196512 2.688964745047355 0 0 0
241 3 15.040157143012186 9.079614293542305 63.954339246811244 0 0 -1
243 3 15.334063822871462 10.1226455728446 4.216255120599163 0 0 0
256 3 14.10550907551276 10.991351187903364 4.311735650245997 0 0 0
106 2 13.180602215126381 10.869394318818987 4.867577735025286 0 0 0
370 1 13.85091721437612 9.859694020277844 4.616770863992316 0 0 0
262 3 14.382421436221803 11.619487927729486 5.38806925539916 0 0 0
492 3 16.211352956309874 10.055815560594159 4.9739139959278225 0 0 0
498 3 15.03635986167754 9.586476005272587 3.5846852430360534 0 0 0
508 3 16.892607351475878 11.419764090699102 3.792283858175294 0 0 0
428 2 16.525383621933265 11.486028222497609 2.4881791391065353 0 0 0
430 2 17.532502237135244 10.518664293864088 5.273027686983119 0 0 0
493 3 19.029301280105276 9.129865388073277 3.195922514438007 0 0 0
495 3 17.568771520809044 8.574990437829943 4.87006762488591 0 0 0
546 3 21.230860094816858 10.81108971658961 6.607615468720051 0 0 0
552 3 20.463968825043477 8.957536597341864 3.6979457832911136 0 0 0
388 1 20.49414094302244 10.211937326625904 4.210972725602936 0 0 0
547 3 21.449565066186864 9.244694346936438 63.28180432986103 0 0 -1
562 3 22.42673605885184 9.483055578878716 3.526739687466788 0 0 0
446 2 21.902623039891367 9.933489576475083 3.162090212040851 0 0 0
448 2 22.003246452962184 10.377538363627625 5.367142813058777 0 0 0
549 3 23.4849373625219 10.86670810413036 4.305821500740313 0 0 0
617 3 24.88159789639531 11.789962130007504 5.105544921404236 0 0 0
406 1 23.6053773316231 10.719446410947022 4.467992787022226 0 0 0
600 3 23.680309908612884 8.652231885809387 6.020985298871799 0 0 0
606 3 24.40415493891636 9.345719592826075 2.3728977068511616 0 0 0
616 3 24.900015158445527 11.817500519911892 2.5553046537105444 0 0 0
466 2 25.244666282537963 11.225982493936627 6.144121811854643 0 0 0
601 3 26.465943072818757 10.800243074672334 3.4496039447346964 0 0 0
603 3 27.25364634293947 10.482551773395368 4.399082149962876 0 0 0
730 1 28.83748522673512 10.982331787080438 4.176376376501993 0 0 0
852 3 28.930900284979256 8.712357945150625 4.6034148929974394 0 0 0
858 3 28.162230788478297 10.8013475973373 3.5213322001320893 0 0 0
869 3 29.091301406252317 10.208366238543391 4.498264227583334 0 0 0
622 3 26.886187090986617 10.802511219648025 5.457638903641667 0 0 0
790 2 29.788711410223154 10.158453134834216 4.777518159652201 0 0 0
868 3 31.87447462868842 9.459252935309522 3.481695367892529 0 0 0
748 1 32.65170591867586 9.415514186235916 4.913741569339789 0 0 0
853 3 32.14150321209341 8.85267816797944 3.5359747000291395 0 0 0
855 3 30.645661748386544 9.724152409068846 5.294137534946796 0 0 0
874 3 29.8362093506571 11.7601941798109 4.453056670922415 0 0 0
906 3 34.093788021016735 10.37988555638917 6.1801175679792 0 0 0
912 3 33.45954144561105 8.563608131622852 63.036184161181055 0 0 -1
766 1 35.84602349943943 10.077523247276082 4.0982059474646535 0 0 0
808 2 35.367493486796086 11.262647265433133 6.49834271279748 0 0 0
907 3 37.08082459812004 10.433299847004006 63.912566359878234 0 0 -1
909 3 36.41916857029299 9.99592147414406 3.6232095390946135 0 0 0
922 3 34.198574584238486 10.938127496412642 2.8194309399343154 0 0 0
928 3 36.16680683296996 10.68219159320323 4.743683197425068 0 0 0
977 3 36.616571151305976 12.193977377412203 5.075551520432618 0 0 0
824 2 39.84195697190641 9.910217475654353 3.3934203422216505 0 0 0
826 2 39.76058488176497 11.218307142124102 5.896914765323444 0 0 0
960 3 38.501143273933614 8.42126914435862 6.416392800920035 0 0 0
966 3 39.09818219040968 9.959909378872947 63.30398356888358 0 0 -1
976 3 39.122696375039595 11.374945302791545 3.102571987239234 0 0 0
982 3 38.96602393363452 10.854243597465155 5.566984281915952 0 0 0
961 3 40.83075438217961 9.604795919688621 2.8127821589820887 0 0 0
963 3 41.03756408450515 8.729838698183734 3.734742842409485 0 0 0
1212 3 42.00792892645123 10.321266269433167 5.599504408077552 0 0 0
1218 3 41.52666626219009 8.701980613316026 2.723400948689315 0 0 0
1090 1 41.59282441819155 11.30814682318964 3.7194235826379978 0 0 0
1150 2 42.74224643531339 10.708962718201283 5.910899087584474 0 0 0
1228 3 43.73552830368178 11.233523761385868 3.442799135669472 0 0 0
1213 3 44.94470765072316 10.41230103714018 63.802571735754135 0 0 -1
1215 3 44.46669178835578 9.925030663442277 6.064716563619936 0 0 0
1266 3 47.12192257453269 8.259390647718128 4.187146586793584 0 0 0
1272 3 45.96312009888861 8.612225631519667 4.0431591561008675 0 0 0
1108 1 44.90981892311532 9.578050964504047 4.744684933442705 0 0 0
1234 3 43.76822715896666 12.873329282938645 5.605196477553108 0 0 0
1288 3 48.26484946704762 12.673862476985342 4.929892520157234 0 0 0
1168 2 47.914433815699475 9.99191169082492 4.628167829350334 0 0 0
1282 3 48.38342542493466 11.374124382876415 3.5742786817060046 0 0 0
1267 3 49.47289688416481 9.86327537279029 2.3620852007849575 0 0 0
1269 3 47.95767766429613 10.924440763597618 5.585525604206805 0 0 0
1126 1 49.699226374565356 11.489838758518834 3.1168158165400293 0 0 0
24391 4 51.25863391752685 12.347718943819975 4.431119140793606 0 0 1
24394 4 52.096736903993815 9.822688074942924 4.921062826274412 0 0 1
1342 3 52.02309857044963 10.947365053917078 4.9619694790851545 0 0 0
1337 3 51.164562276516364 12.541757239171124 5.329883317450365 0 0 0
1184 2 51.605042539314894 10.845405970027878 2.8399311870847415 0 0 0
1186 2 50.999076234168584 10.648339977506117 5.363003339561522 0 0 0
1320 3 52.34425948333587 9.64661418299039 4.986660652651645 0 0 0
1321 3 52.27077601500091 9.072900332474696 3.604872460075287 0 0 0
1323 3 52.362637299128096 11.062302193794707 4.017575968468406 0 0 0
1326 3 51.796907555692705 8.890868598673347 2.530785358527982 0 0 0
1336 3 51.932056119278705 12.085655752968094 3.668399602075037 0 0 0
1496 2 4.271071804054202 14.476679767635618 3.098414606199288 0 0 0
1498 2 4.461036517936131 14.867545984468205 6.430937424685673 0 0 0
1552 3 4.895914744136123 14.342227442132886 3.5326231023777415 0 0 0
13 1 3.25590971775049 12.401947499415183 4.712996859105275 0 0 0
16 1 3.1435421796094314 15.600205482226794 2.900983753152906 0 0 0
145 3 2.1353962801920607 12.214504892402156 3.022032797336903 0 0 0
150 3 3.857815547180124 13.039940257003297 4.464177439246963 0 0 0
156 3 3.0297309781293253 12.238201836138256 63.392656712558235 0 0 -1
151 3 4.6429904202137084 13.687529612924667 2.7688130542936173 0 0 0
1606 3 8.260801627734036 15.51261227903114 5.1181830854292425 0 0 0
1514 2 8.988036029897359 15.139018725178248 2.516765033637324 0 0 0
1516 2 8.152707672951706 14.052830012779985 4.78341338983959 0 0 0
34 1 5.903684937945959 15.646053032055665 3.343307014690698 0 0 0
85 2 5.984826048216193 12.553413336001531 2.5229775973927153 0 0 0
87 2 5.543276563482035 12.087289996194961 4.717186530801256 0 0 0
153 3 5.787780094981694 14.415153596556637 5.583202421117859 0 0 0
199 3 5.495426570313993 12.19246839042317 4.974481778393061 0 0 0
204 3 6.674057904434203 13.395940418402864 3.9507287606150228 0 0 0
210 3 8.011454835989802 14.915544088578432 2.9580900881405516 0 0 0
31 1 9.716750501608242 13.327579651345166 3.6281692202825204 0 0 0
1661 3 11.46749689555599 15.097561783795575 4.805491733578276 0 0 0
253 3 10.956497583044156 11.40682613325678 5.104869633393834 0 0 0
52 1 10.35782203889702 13.707855629285328 3.6840132929132636 0 0 0
105 2 9.683287240124042 12.860224077520623 4.660289240120556 0 0 0
205 3 9.922236440856157 14.498628948034579 2.6151186370868347 0 0 0
207 3 9.94305082536447 15.386977164331212 4.913278140001397 0 0 0
258 3 11.991332752281018 12.339647434762668 3.8266004678596173 0 0 0
264 3 12.866228014928263 14.70837665938383 3.4832429835052414 0 0 0
1660 3 13.562551098265265 13.831771687662831 2.8064549169951865 0 0 0
1534 2 12.600485563577342 15.429417152401891 5.435164047252541 0 0 0
259 3 15.265904964929224 13.477211387872707 2.59968782888632 0 0 0
261 3 13.651759165954674 13.272007341780967 6.1962856430577204 0 0 0
49 1 12.681620078960329 13.064596671000489 3.0161786136103155 0 0 0
505 3 14.678533300158412 13.832355112651376 2.7157189821084726 0 0 0
427 2 15.339551225471844 13.11240227036418 3.022453029417293 0 0 0
429 2 14.570681810916891 12.062530881582667 5.458906389264653 0 0 0
376 1 15.168210023175693 15.33100820949153 4.192682311182834 0 0 0
1858 2 17.824389712458796 14.95211465939814 4.646724347513937 0 0 0
1912 3 17.518799011276812 14.371804643646334 3.9770117118850523 0 0 0
516 3 15.970754170211215 13.846832757322888 2.6358598965831983 0 0 0
510 3 15.025644072107822 13.821999788694235 6.280942379328924 0 0 0
373 1 17.21064174392891 12.941318418561709 3.2392221292166137 0 0 0
513 3 18.975897758160574 13.162072735014357 4.424536863529368 0 0 0
511 3 18.9700848042476 13.163591387583242 3.6961597401863577 0 0 0
445 2 18.342862361535765 12.584023383467793 64.06085057367567 0 0 -1
447 2 18.426242925928417 12.423849599467411 6.412647556257362 0 0 0
1876 2 21.315822276083153 14.936681844241841 6.154707277791702 0 0 0
1966 3 23.14309774376667 14.476532428001686 4.326728655743348 0 0 0
559 3 19.361955836226457 12.609461944775378 5.101419397986941 0 0 0
564 3 20.025968410168673 12.928472090301733 4.829836138015656 0 0 0
570 3 19.614257314363403 13.184672698111589 3.555778017951606 0 0 0
394 1 19.04294681044633 15.134116877665955 4.1591458686833125 0 0 0
565 3 21.9503488597116 14.739215946298607 3.4324955266924615 0 0 0
391 1 21.076050201965103 12.909944689722588 4.2785638578211085 0 0 0
1894 2 25.02604800609726 14.330435528128081 5.020982529282802 0 0 0
567 3 23.021098156902845 15.150793735229511 5.924933888484805 0 0 0
613 3 25.51156998165022 12.836398748244408 3.987695600691571 0 0 0
412 1 22.703100496259676 15.19723015312838 3.5035460702939396 0 0 0
463 2 23.092930378292593 11.894981248805268 3.135313501600143 0 0 0
465 2 24.44319732730132 13.449180077170308 6.13729447442968 0 0 0
618 3 25.61209873365587 13.066042344105274 4.437642715474244 0 0 0
409 1 26.297228893912624 12.294412856678221 3.2803396687421555 0 0 0
624 3 24.695896987893196 14.016607945125868 63.68654290663769 0 0 -1
2020 3 27.507249518309475 15.692966863530456 3.688871387627109 0 0 0
619 3 27.23996245990315 14.664629231469412 3.484299453641542 0 0 0
621 3 26.754938471437477 12.902322753492996 4.453327897755902 0 0 0
787 2 28.177118189641394 12.545876014436312 3.3754614663555946 0 0 0
789 2 27.156341616441782 12.541176624426958 5.206754616426182 0 0 0
736 1 27.58180335179161 14.422076780732585 4.217228007283866 0 0 0
25488 4 29.105618409643853 14.86467455806129 4.468734703781788 0 0 1
865 3 27.818998956921703 13.65415111658347 2.959141830192634 0 0 0
870 3 28.739845429816263 13.267121723323271 5.784246234454704 0 0 0
876 3 30.391651434304258 12.646360476693824 3.2866938544903292 0 0 0
2216 2 30.414628292379042 15.221991869967574 2.4322721129534384 0 0 0
2218 2 29.840667377107668 15.019318144274608 5.938082793809667 0 0 0
2272 3 29.728160647413095 14.066059912442714 4.474365358823711 0 0 0
733 1 30.648995835755592 12.89127632038062 3.0687365877841413 0 0 0
754 1 31.765563884661187 15.051410027758518 3.580665772139052 0 0 0
807 2 31.77318480697711 13.371385601508775 4.5867153009627595 0 0 0
919 3 33.531390724293686 13.838665897842302 4.636975474212876 0 0 0
871 3 32.46549698041139 13.30448286294433 2.465701872309367 0 0 0
873 3 32.81397493104381 14.221636085759116 4.981585199828376 0 0 0
2327 3 33.54224102143215 15.52333411583517 5.63489064721596 0 0 0
2234 2 34.338636624190066 15.791458965333284 2.6606919780512746 0 0 0
2236 2 33.852052743531345 15.523491215716977 5.89697321915838 0 0 0
2326 3 34.66090576577192 16.284077222248396 4.665550735848239 0 0 0
924 3 32.57098900957657 14.628426265250308 6.2875740843755255 0 0 0
930 3 33.69132217774151 13.964859997997497 63.75795760815018 0 0 -1
751 1 35.01953648489007 12.379314808474794 4.933137237159134 0 0 0
772 1 36.1526739664247 15.178091192994458 4.838862316993472 0 0 0
925 3 37.028276430639046 13.463579784410998 3.659296148474409 0 0 0
927 3 36.16763132826818 13.723997613578637 4.031949978545826 0 0 0
2381 3 36.24588958674489 14.749620878048946 4.403116871778328 0 0 0
2252 2 39.55990204487539 15.951123834743873 2.4007062463154 0 0 0
2254 2 38.00088604110555 15.006425662142165 5.277678260422304 0 0 0
2380 3 40.00198390641816 13.989032364887649 4.418354328540701 0 0 0
823 2 37.53981469403538 12.960431236758458 3.1629235546443732 0 0 0
825 2 36.91110528795593 12.178326302165365 4.354967417177833 0 0 0
973 3 37.63387215965187 12.88958922142222 5.0793021810902115 0 0 0
769 1 39.26019676836779 12.117936286557669 4.835395384715954 0 0 0
978 3 38.960343739852945 13.482498062453079 5.651823217803398 0 0 0
981 3 39.15475915482769 12.890088516887056 6.062713606415767 0 0 0
984 3 37.59262929267748 12.523994313239248 62.96412625210177 0 0 -1
2576 2 44.0198069218836 14.188490281171976 3.234529947162591 0 0 0
2578 2 42.20028704003587 14.63467968338976 5.928215759898292 0 0 0
1147 2 41.90565765896039 13.413431773089547 2.684839409087312 0 0 0
1149 2 40.38894906023202 12.239619250195412 4.891874433674079 0 0 0
979 3 40.593542412398996 14.84898120992807 63.31548816614025 0 0 -1
1225 3 42.07017668569702 12.871255460824425 3.735683128164542 0 0 0
1230 3 42.794315942464145 13.814265470193742 5.309824655441694 0 0 0
1236 3 41.6629305910648 13.271621087053457 63.5230351442519 0 0 -1
1093 1 43.0150928865893 13.911570095165729 3.569064675677531 0 0 0
1096 1 40.86830403514 13.690005726663438 3.1568974140475823 0 0 0
1167 2 46.08092307821726 13.17037235777791 5.667850915515748 0 0 0
1284 3 45.77195383281288 14.034987650740206 5.543326135475955 0 0 0