=== [Tue Apr 21 15:00:48 CDT 2026] PT+KOKKOS (lmp_kk) N=28800 ===
MODEL=/work/nvme/bguf/akashgpt/softwares/installing_MLMD_related_stuff/deepmd-kit__w_plumed/testing__LAMMPS__kokkos_bench/He_MgSiO3__54MgSiO3_90He/shared/model_comp.pth
LAMMPS (2 Aug 2023 - Update 3)
DeePMD-kit WARNING: Environmental variable DP_INTRA_OP_PARALLELISM_THREADS is not set. Tune DP_INTRA_OP_PARALLELISM_THREADS for the best performance. See https://deepmd.rtfd.io/parallelism/ for more information.
DeePMD-kit WARNING: Environmental variable DP_INTER_OP_PARALLELISM_THREADS is not set. Tune DP_INTER_OP_PARALLELISM_THREADS for the best performance. See https://deepmd.rtfd.io/parallelism/ for more information.
KOKKOS mode with Kokkos version 3.7.2 is enabled (src/KOKKOS/kokkos.cpp:108)
  will use up to 1 GPU(s) per node
WARNING: When using a single thread, the Kokkos Serial backend (i.e. Makefile.kokkos_mpi_only) gives better performance than the OpenMP backend (src/KOKKOS/kokkos.cpp:238)
Kokkos::OpenMP::initialize WARNING: OMP_PROC_BIND environment variable not set
  In general, for best performance with OpenMP 4.0 or better set OMP_PROC_BIND=spread and OMP_PLACES=threads
  For best performance with OpenMP 3.1 set OMP_PROC_BIND=true
  For unit testing set OMP_PROC_BIND=false
  using 1 OpenMP thread(s) per MPI task

variable        T1                  equal 3200
variable        T2                  equal 4800
variable        P1                  equal 100E4
variable        P2                  equal 10E4

variable        TEMP                equal ((${T1}+${T2})/2)
variable        TEMP                equal ((3200+${T2})/2)
variable        TEMP                equal ((3200+4800)/2)
variable        PRES                equal ((${P1}+${P2})/2)
variable        PRES                equal ((1000000+${P2})/2)
variable        PRES                equal ((1000000+100000)/2)

variable        TIMESTEP            equal 0.5e-3
variable        THERMO_FREQ         equal 100
variable        DUMP_FREQ           equal 500
variable        NSTEPS_relax        index 200
variable        NSTEPS_4training    index 5000
variable        TAU_T               equal 0.0100000
variable        TAU_P               equal 0.100000

variable        kBeV                equal 8.617333262e-5
variable        TeV                 equal ${TEMP}*${kBeV}
variable        TeV                 equal 4000*${kBeV}
variable        TeV                 equal 4000*8.617333262e-05

units           metal
boundary        p p p
atom_style      atomic
neighbor        1.0 bin
neigh_modify    every 1 delay 0 check no

read_data       conf.lmp
Reading data file ...
  orthogonal box = (0 0 0) to (56.04 56.04 66.4)
  1 by 1 by 1 MPI processor grid
  reading atoms ...
  28800 atoms
  read_data CPU = 0.108 seconds

# ${MODEL} is injected via `lmp -var MODEL <path>` from the sub script.
pair_style      deepmd ${MODEL} fparam ${TeV}
pair_style      deepmd /work/nvme/bguf/akashgpt/softwares/installing_MLMD_related_stuff/deepmd-kit__w_plumed/testing__LAMMPS__kokkos_bench/He_MgSiO3__54MgSiO3_90He/shared/model_comp.pth fparam ${TeV}
pair_style      deepmd /work/nvme/bguf/akashgpt/softwares/installing_MLMD_related_stuff/deepmd-kit__w_plumed/testing__LAMMPS__kokkos_bench/He_MgSiO3__54MgSiO3_90He/shared/model_comp.pth fparam 0.34469333048
Summary of lammps deepmd module ...
  >>> Info of deepmd-kit:
  installed to:       /work/nvme/bguf/agupta46/softwares/conda_envs_dir_secondary/envs/ALCHEMY_env__PT
  source:             v3.1.3
  source branch:      HEAD
  source commit:      b2c8511e
  source commit at:   2026-03-18 14:20:41 +0000
  support model ver.: 1.1 
  build variant:      cuda
  build with pt lib:  torch;torch_library;/work/nvme/bguf/agupta46/softwares/conda_envs_dir_secondary/envs/ALCHEMY_env__PT/lib/libc10.so;CUDA::nvrtc;/work/nvme/bguf/agupta46/softwares/conda_envs_dir_secondary/envs/ALCHEMY_env__PT/lib/libc10_cuda.so
  set tf intra_op_parallelism_threads: 0
  set tf inter_op_parallelism_threads: 0
  >>> Info of lammps module:
  use deepmd-kit at:  /u/agupta46/.local
  source:             
  source branch:      
  source commit:      
  source commit at:   
  build with inc:     
  build with lib:     
load model from: /work/nvme/bguf/akashgpt/softwares/installing_MLMD_related_stuff/deepmd-kit__w_plumed/testing__LAMMPS__kokkos_bench/He_MgSiO3__54MgSiO3_90He/shared/model_comp.pth to gpu 0
DeePMD-kit WARNING: Environmental variable DP_INTRA_OP_PARALLELISM_THREADS is not set. Tune DP_INTRA_OP_PARALLELISM_THREADS for the best performance. See https://deepmd.rtfd.io/parallelism/ for more information.
DeePMD-kit WARNING: Environmental variable DP_INTER_OP_PARALLELISM_THREADS is not set. Tune DP_INTER_OP_PARALLELISM_THREADS for the best performance. See https://deepmd.rtfd.io/parallelism/ for more information.
  >>> Info of model(s):
  using   1 model(s): /work/nvme/bguf/akashgpt/softwares/installing_MLMD_related_stuff/deepmd-kit__w_plumed/testing__LAMMPS__kokkos_bench/He_MgSiO3__54MgSiO3_90He/shared/model_comp.pth 
  rcut in model:      6
  ntypes in model:    5
  using fparam(s):    0.344693  
pair_coeff      * *

# Equilibration
reset_timestep  0
velocity        all create ${T1} 6149
velocity        all create 3200 6149
fix             NPTSTATE all npt temp ${T1} ${T1} ${TAU_T} iso ${P1} ${P1} ${TAU_P}
fix             NPTSTATE all npt temp 3200 ${T1} ${TAU_T} iso ${P1} ${P1} ${TAU_P}
fix             NPTSTATE all npt temp 3200 3200 ${TAU_T} iso ${P1} ${P1} ${TAU_P}
fix             NPTSTATE all npt temp 3200 3200 0.01 iso ${P1} ${P1} ${TAU_P}
fix             NPTSTATE all npt temp 3200 3200 0.01 iso 1000000 ${P1} ${TAU_P}
fix             NPTSTATE all npt temp 3200 3200 0.01 iso 1000000 1000000 ${TAU_P}
fix             NPTSTATE all npt temp 3200 3200 0.01 iso 1000000 1000000 0.1
timestep        ${TIMESTEP}
timestep        0.0005
thermo          ${THERMO_FREQ}
thermo          100
thermo_style    custom step temp press vol etotal ke pe enthalpy
run             ${NSTEPS_relax}
run             20

CITE-CITE-CITE-CITE-CITE-CITE-CITE-CITE-CITE-CITE-CITE-CITE-CITE

Your simulation uses code contributions which should be cited:
- USER-DEEPMD package:
The log file lists these citations in BibTeX format.

CITE-CITE-CITE-CITE-CITE-CITE-CITE-CITE-CITE-CITE-CITE-CITE-CITE

Generated 0 of 6 mixed pair_coeff terms from geometric mixing rule
Neighbor list info ...
  update: every = 1 steps, delay = 0 steps, check = no
  max neighbors/atom: 2000, page size: 100000
  master list distance cutoff = 7
  ghost atom cutoff = 7
  binsize = 7, bins = 9 9 10
  1 neighbor lists, perpetual/occasional/extra = 1 0 0
  (1) pair deepmd, perpetual
      attributes: full, newton on
      pair build: full/bin/atomonly
      stencil: full/bin/3d
      bin: standard
Setting up Verlet run ...
  Unit style    : metal
  Current step  : 0
  Time step     : 0.0005
Per MPI rank memory allocation (min/avg/max) = 29.5 | 29.5 | 29.5 Mbytes
   Step          Temp          Press          Volume         TotEng         KinEng         PotEng        Enthalpy   
         0   3200           112581.67      208527.98     -217500.76      11912.201     -229412.96     -202847.93    
        20   3297.9401      89175.469      196657.89     -217215.99      12276.789     -229492.78     -206270.22    
Loop time of 27.662 on 1 procs for 20 steps with 28800 atoms

Performance: 0.031 ns/day, 768.389 hours/ns, 0.723 timesteps/s, 20.823 katom-step/s
71.8% CPU use with 1 MPI tasks x 1 OpenMP threads

MPI task timing breakdown:
Section |  min time  |  avg time  |  max time  |%varavg| %total
---------------------------------------------------------------
Pair    | 18.212     | 18.212     | 18.212     |   0.0 | 65.84
Neigh   | 9.3377     | 9.3377     | 9.3377     |   0.0 | 33.76
Comm    | 0.078125   | 0.078125   | 0.078125   |   0.0 |  0.28
Output  | 0.00014228 | 0.00014228 | 0.00014228 |   0.0 |  0.00
Modify  | 0.030663   | 0.030663   | 0.030663   |   0.0 |  0.11
Other   |            | 0.003108   |            |       |  0.01

Nlocal:          28800 ave       28800 max       28800 min
Histogram: 1 0 0 0 0 0 0 0 0 0
Nghost:          27336 ave       27336 max       27336 min
Histogram: 1 0 0 0 0 0 0 0 0 0
Neighs:              0 ave           0 max           0 min
Histogram: 1 0 0 0 0 0 0 0 0 0
FullNghs:  6.05987e+06 ave 6.05987e+06 max 6.05987e+06 min
Histogram: 1 0 0 0 0 0 0 0 0 0

Total # of neighbors = 6059872
Ave neighs/atom = 210.41222
Neighbor list builds = 20
Dangerous builds not checked
unfix           NPTSTATE

# Main timed loop — this is the number used for the ms/step metric.
velocity        all create ${T1} 6149
velocity        all create 3200 6149
fix             4TRAINING all npt temp ${T1} ${T2} ${TAU_T} iso ${P1} ${P2} ${TAU_P}
fix             4TRAINING all npt temp 3200 ${T2} ${TAU_T} iso ${P1} ${P2} ${TAU_P}
fix             4TRAINING all npt temp 3200 4800 ${TAU_T} iso ${P1} ${P2} ${TAU_P}
fix             4TRAINING all npt temp 3200 4800 0.01 iso ${P1} ${P2} ${TAU_P}
fix             4TRAINING all npt temp 3200 4800 0.01 iso 1000000 ${P2} ${TAU_P}
fix             4TRAINING all npt temp 3200 4800 0.01 iso 1000000 100000 ${TAU_P}
fix             4TRAINING all npt temp 3200 4800 0.01 iso 1000000 100000 0.1
timestep        ${TIMESTEP}
timestep        0.0005
thermo          ${THERMO_FREQ}
thermo          100
thermo_style    custom step temp press vol etotal ke pe enthalpy
dump            myDUMP all custom ${DUMP_FREQ} npt.dump id type element x y z
dump            myDUMP all custom 500 npt.dump id type element x y z
dump_modify     myDUMP sort id
dump_modify     myDUMP element Mg Si O He
run             ${NSTEPS_4training}
run             100
Generated 0 of 6 mixed pair_coeff terms from geometric mixing rule
Setting up Verlet run ...
  Unit style    : metal
  Current step  : 20
  Time step     : 0.0005
Per MPI rank memory allocation (min/avg/max) = 31.6 | 31.6 | 31.6 Mbytes
   Step          Temp          Press          Volume         TotEng         KinEng         PotEng        Enthalpy   
        20   3200           86521.785      196657.89     -217625.86      11912.201     -229538.06     -207005.81    
       100   4129.3171      101712.32      169357.51     -213940.32      15371.643     -229311.97     -203188.86    
       120   4479.6121      112959.46      167576.87     -212655.49      16675.638     -229331.13     -200840.69    
Loop time of 122.048 on 1 procs for 100 steps with 28800 atoms

Performance: 0.035 ns/day, 678.042 hours/ns, 0.819 timesteps/s, 23.597 katom-step/s
79.7% CPU use with 1 MPI tasks x 1 OpenMP threads

MPI task timing breakdown:
Section |  min time  |  avg time  |  max time  |%varavg| %total
---------------------------------------------------------------
Pair    | 70.233     | 70.233     | 70.233     |   0.0 | 57.55
Neigh   | 51.393     | 51.393     | 51.393     |   0.0 | 42.11
Comm    | 0.34262    | 0.34262    | 0.34262    |   0.0 |  0.28
Output  | 0.00017664 | 0.00017664 | 0.00017664 |   0.0 |  0.00
Modify  | 0.069107   | 0.069107   | 0.069107   |   0.0 |  0.06
Other   |            | 0.009773   |            |       |  0.01

Nlocal:          28800 ave       28800 max       28800 min
Histogram: 1 0 0 0 0 0 0 0 0 0
Nghost:          28343 ave       28343 max       28343 min
Histogram: 1 0 0 0 0 0 0 0 0 0
Neighs:              0 ave           0 max           0 min
Histogram: 1 0 0 0 0 0 0 0 0 0
FullNghs:  7.09289e+06 ave 7.09289e+06 max 7.09289e+06 min
Histogram: 1 0 0 0 0 0 0 0 0 0

Total # of neighbors = 7092892
Ave neighs/atom = 246.28097
Neighbor list builds = 100
Dangerous builds not checked
unfix           4TRAINING
undump          myDUMP

write_data      conf.lmp.end
System init for write_data ...
Generated 0 of 6 mixed pair_coeff terms from geometric mixing rule
Total wall time: 0:02:39
=== [Tue Apr 21 15:03:35 CDT 2026] Done ===
