LAMMPS data file via write_data, version 2 Aug 2023, timestep = 600, units = metal

2880 atoms
4 atom types

1.3975951043340693 26.622404895665944 xlo xhi
1.3975951043340693 26.622404895665944 ylo yhi
1.324772518597877 25.235227481402095 zlo zhi

Masses

1 24.305
2 28.0855
3 15.9994
4 4.002602

Atoms # atomic/kk

1 1 2.7957252273356534 3.1454783075483865 24.507450145712863 0 0 -1
58 2 6.232414369873875 3.266877568124745 3.446065715353239 0 0 0
113 3 4.424318430006895 21.19504746336868 2.346054646651528 0 -1 0
114 3 23.79127146198299 7.472515556987755 3.3153969080318397 -1 0 0
118 3 7.731367874026301 2.628508492457346 1.8962585223285329 0 0 0
120 3 23.768387269157785 3.5371422611174794 6.4694434167363495 -1 0 0
1725 4 4.148774574170584 4.51008298691888 4.251545292857544 0 0 1
754 1 2.890208475942334 4.555960080887644 24.226082918648217 0 1 -1
117 3 7.765142370806169 7.038423200641359 2.8386952363223683 0 0 0
1721 4 4.7667276966384655 3.1899551632903966 9.2351026164696 0 0 1
2450 4 8.953885349292367 12.034395718914038 24.627815845167422 0 1 0
163 3 2.7653171833352275 21.92287891013456 24.11230599742462 0 -1 -1
164 3 13.04169452141293 25.55274093899821 2.6110451847006853 0 -1 0
167 3 8.078320389793344 25.813008934498402 3.0210788268808084 0 -1 0
168 3 5.024470521484451 4.632503519607599 3.011519627940915 0 0 0
73 2 5.781951310751331 2.756093302406404 3.2084149359663447 0 0 0
75 2 8.03656440719224 6.445792450067702 5.585397755120549 0 0 0
166 3 8.183379573416538 25.35995309647137 22.6029669812974 0 -1 -1
172 3 5.0868687000025306 24.520196367295732 1.470273868111228 0 -1 0
1764 4 8.254071510836361 6.154003179213035 3.9540065674164286 0 0 1
217 3 10.711914776616046 24.364972857606578 1.4479449057328244 0 -1 0
19 1 4.847384991484589 5.6358378189648395 3.2596085355944537 0 0 0
76 2 7.191492373235885 3.5193086593778764 6.064130701789041 0 0 0
1724 4 8.878677246411497 6.804880052877624 2.836396025181739 0 0 1
772 1 7.676712120753204 2.4923201517264495 25.019208913446004 0 1 -1
169 3 6.4611688017987765 2.0413182181285774 2.8635376007469344 0 0 0
171 3 5.979015409330866 25.41072859493986 2.3721364542021943 0 -1 0
184 3 6.018814283099307 7.994497546657919 17.879146675522886 0 0 -1
80 2 8.924644776612734 4.6394630855377486 23.941432621160793 0 0 -1
82 2 5.8328977030330575 8.552520081706655 4.405002550521878 0 0 0
93 2 11.299045032369202 3.3267187896239943 4.293432110352203 0 0 0
220 3 11.995056263696634 24.178726082712164 4.238629989974039 0 -1 0
222 3 11.92274418404317 1.8874960106872383 24.160535574215277 0 0 -1
226 3 15.745083680141342 6.017847157311935 4.13141264131614 0 0 0
228 3 13.161518776743911 2.30653813945025 25.029865255665257 0 0 -1
37 1 9.926997914742914 5.525882733829907 22.66258335732397 0 0 -1
94 2 13.747975492848283 2.863346969197795 2.813034815066508 0 0 0
469 3 11.612800472152047 2.3060148522126815 23.051726371966968 0 0 -1
1756 4 16.514811435878272 2.506065437044466 3.589368902389078 0 0 1
239 3 5.341227019137832 6.43798362843748 3.132070974199038 0 0 0
225 3 14.67268802181861 12.778770769229359 24.154322327493524 0 0 -1
364 1 11.956100722946887 2.2185407362279475 6.044530328861621 0 0 0
1762 4 5.351371547754548 11.412239765157636 5.128557684138192 0 0 1
1226 3 17.329501701568816 4.036360573658621 5.192736492330311 0 1 0
471 3 21.538603803613217 7.476551591797351 25.210235799919612 0 0 -1
361 1 15.226517062887668 25.85641838191424 25.083097891402495 0 -1 -1
417 2 16.679017895216514 10.681926762674074 5.744695976033112 0 0 0
418 2 17.261658435585954 1.6904652885052733 7.155145611249893 0 0 0
472 3 8.815206335621443 25.806071623740966 2.1562780498923044 0 -1 0
473 3 14.36969535619309 3.6862052605358357 23.942599638633222 0 0 -1
474 3 10.798233618303634 2.3385444786540437 23.546561670323783 0 0 -1
478 3 16.45570205570688 9.522666551853368 1.741905711837527 0 0 0
480 3 14.833576136400405 1.5007837843925633 2.1812711605282855 0 0 0
433 2 17.839233308471602 4.074453213718885 2.1668219825872153 0 0 0
2085 4 14.70148579422705 26.13249975445054 3.0844918824838428 0 -1 1
435 2 18.03218211284537 2.681665101301842 5.77386985584787 0 0 0
223 3 17.20828768185158 5.758031228972038 2.465127166492917 0 0 0
424 2 17.00089919201192 7.0524746470472 4.6935626419226315 0 0 0
490 3 14.354479087159369 4.539611210808456 23.596519578962386 0 0 -1
477 3 17.18863719633006 8.260758186804377 3.216116684829697 0 0 0
1280 3 20.917063371255868 3.2018585726955457 3.2254843172594856 0 1 0
523 3 16.924014272759575 13.394081621773983 5.423262841225177 0 0 0
527 3 20.185936429088088 4.394490617270291 1.5453856801003978 0 0 0
528 3 22.97397932765938 4.135348767276005 2.9729244346267762 0 0 0
534 3 14.982919175636523 24.024083523105002 4.369757576808485 0 -1 0
379 1 18.920805149653535 4.953084473309413 22.92868997518007 0 0 -1
526 3 21.704331553756894 6.566034606605712 1.8855848342689259 0 0 0
532 3 19.290383661999794 3.2805866107588955 1.8003137055101925 0 0 0
453 2 23.294406596107024 1.7826753466350378 7.017099765070806 0 0 0
577 3 20.965448968868067 5.410742577607791 1.5683922240132788 0 0 0
382 1 20.365550653241957 2.496393151741976 22.37625877115579 0 0 -1
531 3 23.860701666910987 5.338522167804298 23.646503536544877 0 0 -1
442 2 21.85238696049577 6.686418336241791 7.374961862610962 0 0 0
1334 3 4.846489957300138 25.326787545019048 3.1544131550239367 1 0 0
57 2 24.572448083414823 2.005906346636742 5.90106775926726 -1 0 0
579 3 4.553977389953857 1.4599009744825022 4.217827300785041 1 0 0
109 3 2.9187408864428908 24.16353859557614 22.730063669763084 0 -1 -1
451 2 25.120523548297793 2.204236868003479 2.6849208306027545 0 0 0
581 3 23.79251221411558 23.986447147727443 2.0179145841061303 0 -1 0
397 1 25.161396611075922 4.004222460139664 3.1133767425322945 0 0 0
454 2 23.7004988841712 3.597249400874642 3.3950647544425956 0 0 0
580 3 26.578343768607507 26.27701630220952 23.69413843847195 0 -1 -1
582 3 21.385076173139165 5.068038850436001 1.3929702882418866 0 0 0
2086 4 25.01144997364307 4.240488739973372 5.916557195487036 0 0 1
4 1 3.775754392828276 2.3858760051683303 9.044591011765316 0 0 0
585 3 18.465313173365736 5.605318249199415 1.7468237718472548 0 0 0
70 2 4.630228060947273 6.744363705123257 6.310981165179562 0 0 0
133 3 3.2793894918223887 8.883014111144519 3.7367994311188784 0 0 0
135 3 2.668075217721834 6.688712303576712 3.602530783405469 0 0 0
81 2 7.09605531722225 10.508373018536016 4.406879368660568 0 0 0
129 3 3.7659876911961487 6.410688036377206 3.4989372775210548 0 0 0
130 3 23.437708691536464 10.756345257981039 2.80888584394984 -1 0 0
131 3 3.8410764804124504 8.441784907583994 25.19037301378696 0 0 -1
62 2 7.084270149228177 8.4861785872376 1.6296070208553186 0 0 0
64 2 4.555564153300723 8.10104777253899 3.0657079627619566 0 0 0
127 3 26.00982459369289 9.622709611545378 3.0805360515634805 -1 0 0
132 3 9.476595464062846 9.253998624074292 22.69724499862082 0 0 -1
138 3 4.374798487144277 6.0181859334633785 3.6460425747603025 0 0 0
148 3 6.909614813412406 8.106114809521099 24.048197876867427 0 0 -1
7 1 4.985739957028102 2.4634037711167975 22.46879718693069 0 0 -1
63 2 4.049747375727663 11.329718032937686 2.9726345633588798 0 0 0
186 3 5.131026729160471 5.003798165670849 1.91669330241152 0 0 0
187 3 5.950094224415355 9.562210757048245 3.3272776840168437 0 0 0
189 3 4.52666928771858 8.558874774909594 23.453617571776324 0 0 -1
25 1 10.200811682181982 6.259872399891262 3.3267104721997116 0 0 0
88 2 5.4470022720907965 12.306451774180095 5.2932498037283775 0 0 0
99 2 14.104918928595367 8.888463865110449 23.877435630285085 0 0 -1
1740 4 11.0962089163968 4.799700161630415 1.6120723770276306 0 0 1
1714 4 6.110431817997986 3.71711930487524 4.947104554115669 0 0 1
182 3 2.393084324274275 7.438786033191383 1.999757826874352 0 0 0
181 3 3.6321127133296 6.7449130538920805 25.018249553293817 0 0 -1
185 3 4.051810354077902 8.731989276822556 4.810108368645086 0 0 0
22 1 10.333100303106002 4.243079698933859 2.802957939812656 0 0 0
190 3 5.4665358057552975 10.986313984609493 2.391014898091395 0 0 0
40 1 9.84566053452417 6.677753657897898 1.4749838842091407 0 0 0
1720 4 6.934827121850947 2.5909870704824165 1.3985783665310656 0 0 1
97 2 8.146824444521963 9.484576809752076 1.4281760045655845 0 0 0
240 3 12.037829053398443 9.808902427145904 4.558215194319769 0 0 0
246 3 13.36311658174148 8.48867830706537 2.502230101009865 0 0 0
43 1 9.841870748695703 5.95556390098544 24.16417639965136 0 0 -1
370 1 10.593289391455897 8.112470611356294 3.0252247415007107 0 0 0
183 3 7.532303369704766 11.20897074371667 4.685383634525244 0 0 0
235 3 14.467096329953915 7.545246595547274 3.1897492644648304 0 0 0
238 3 11.520422527089092 1.4332061975596955 24.37017117695649 0 0 -1
244 3 14.025360349569688 6.78367167871556 1.8618379869343837 0 0 0
100 2 13.770622096752454 6.60080070438176 1.5028017481078906 0 0 0
1718 4 17.793318924898223 13.089371666925036 4.156600024453355 0 0 1
1717 4 10.41276420407207 8.31146065033982 3.1614903318287717 0 0 1
1747 4 9.406474291057993 9.2505181256381 5.903855995503454 0 0 1
243 3 16.285776790510987 10.184208059638102 3.271119976198648 0 0 0
367 1 19.964730310984834 5.143903516141281 17.686641138100303 0 0 -1
423 2 12.619859183729321 2.850180912067974 4.269506714575199 0 0 0
430 2 14.60862897446065 9.2219019449304 3.8115230941280074 0 0 0
492 3 15.99537632581803 7.647736225816593 3.047644444658266 0 0 0
498 3 13.183396317805741 7.431059750325749 2.5658349599303865 0 0 0
509 3 15.59321963446721 10.287929446813589 2.183072436386957 0 0 0
439 2 17.098461807790574 8.581161097026914 1.9364797029894376 0 0 0
493 3 17.203659007209207 6.734215144770953 3.0087634349490364 0 0 0
495 3 16.64896028702497 7.331696698355877 4.20508905337442 0 0 0
488 3 19.463517045487063 6.041992385283185 24.75031234542483 0 0 -1
2106 4 12.367501652215614 13.790975968880254 5.370977471464662 0 0 1
487 3 11.860445433807195 9.897514168209256 3.9445814922580427 0 0 0
491 3 22.11223658684128 2.796874649044173 6.521813824888301 0 0 0
496 3 17.73099421915028 2.415312793771628 3.414474664605536 0 0 0
541 3 16.23458492078426 8.11187370644139 2.0592606879614674 0 0 0
2079 4 11.478961208137175 5.857780758435607 5.555621892514534 0 0 1
2082 4 14.10867243484397 12.119963464189187 7.543203572320362 0 0 1
388 1 21.419410250823674 9.310303619874603 5.935163719522127 0 0 0
546 3 20.135904126664943 12.82871860525146 7.835637402454178 0 0 0
441 2 18.587830000445116 4.977310759984356 4.177864741352465 0 0 0
552 3 15.575211960021248 8.231008336134517 4.176417317861648 0 0 0
385 1 20.77876702656966 9.506303126835084 5.717448989165945 0 0 0
446 2 21.622456677555675 8.684586067067217 3.062347410497722 0 0 0
448 2 24.80484265399726 8.850059797254085 6.943903434100463 0 0 0
549 3 20.55604693827325 11.402631870308095 22.194793275985457 0 0 -1
562 3 22.806785323585803 5.501374409145491 1.695365475985521 0 0 0
387 1 21.525768931350136 5.759955926015241 6.315636740524171 0 0 0
545 3 20.94589643580158 3.1622309969870517 3.1679076237517947 0 0 0
544 3 19.191642191571663 8.84683356795334 1.5814988546882276 0 0 0
440 2 22.035252973082077 5.106365559254149 1.9811247494933741 0 0 0
2108 4 26.55156775434474 3.108034200165324 7.455562808880269 0 0 1
406 1 19.55597186396028 9.22715252351629 6.03688053578316 0 0 0
459 2 23.861414536175236 9.66057370707306 3.8437438707474385 0 0 0
403 1 25.75849440879158 7.9232803564300704 1.835654680583017 0 0 0
600 3 23.27096800447195 7.018693902882279 7.969156016300011 0 0 0
601 3 22.491316458047482 11.977231746217809 2.180008153405637 0 0 0
603 3 5.808955783583208 5.689125222248148 4.367760325431109 1 0 0
606 3 19.73540264498192 8.506812424764027 22.62443138807682 0 0 -1
410 1 26.45680432714112 4.070427784834601 24.5843259037082 0 0 -1
597 3 25.205872150036413 5.83680700730788 1.9833648870516891 0 0 0
400 1 23.222812885236365 5.94196657926778 3.35839899993558 0 0 0
595 3 26.342553460747805 7.934426137458809 4.370284152047442 0 0 0
599 3 20.32362597002266 4.375958323801701 2.778325681660448 0 0 0
460 2 24.207225983292915 7.13407552761332 6.101928735206222 0 0 0
598 3 23.45555348575933 4.444360313067253 3.174773805167806 0 0 0
604 3 24.095908011375908 7.01190319852892 1.4744143159563783 0 0 0
2107 4 4.315081548617121 13.446983085359323 2.8950562637986628 1 0 1
2110 4 1.8749355918388475 13.841574225673854 3.1634740084661352 1 0 1
832 3 1.8798340679920778 13.35932393724576 24.411198161980124 0 0 -1
68 2 6.818139222526254 11.719184340291076 1.7934168484253517 0 0 0
145 3 5.436315580294119 11.198045906938292 23.080436991554638 0 0 -1
150 3 25.78445836753555 11.575722891979868 2.2343748743734233 -1 0 0
154 3 24.209426499125488 7.2847396395026855 22.495502587919713 -1 0 -1
13 1 1.585896751361981 12.03691339986451 3.292084209902148 0 0 0
151 3 3.2915829284649676 8.8083373820924 1.339755649592158 0 0 0
153 3 8.411295836430853 14.696151717432805 3.799782981681451 0 0 0
199 3 4.394757088897123 15.192310959403516 1.8457175451672063 0 0 0
85 2 6.232804222903442 11.549404941731876 24.124122999505826 0 0 -1
87 2 4.579248250695825 9.035114081701847 25.002440392578823 0 0 -1
15 1 1.8545501884477604 12.39976883883857 5.458045326678513 0 0 0
1118 1 2.6255732849628357 12.007259611713899 24.881277031329816 1 0 -1
1713 4 23.115470686119654 9.936824718143887 3.411025591890057 -1 0 1
149 3 4.422965792357164 6.286027789191565 2.8751647635997997 0 0 0
10 1 3.3023531380323403 12.334310788237786 2.648137348278097 0 0 0
796 2 7.877482842738299 12.150529240448975 5.6945120888639895 0 0 0
28 1 9.581154388086206 13.15731279199948 22.78483562367258 0 0 -1
202 3 13.884508189007422 14.875182700497277 18.191723974212746 0 0 -1
46 1 5.5515915959463396 12.74243177868592 3.1683201978105404 0 0 0
86 2 7.068905877636341 10.461543421919346 3.3832161382497405 0 0 0
204 3 9.031451323456945 13.215864421634274 2.905861499562323 0 0 0
210 3 9.8420603536197 18.073421827303815 3.9602063218662154 0 0 0
205 3 6.559580642917777 15.45548322572219 2.2137612969387273 0 0 0
208 3 4.116215353541055 8.745117690824703 23.167679264006598 0 0 -1
31 1 8.765108823807692 11.242209955162782 4.63193060948673 0 0 0
52 1 7.382506857879989 9.858866253652753 5.695978909179689 0 0 0
105 2 5.690888440125799 11.778886167645714 2.9298574518468388 0 0 0
33 1 9.966743630736605 12.959880767360705 3.595263731052822 0 0 0
1712 4 6.60788553086098 6.207167646025547 6.676722085681068 0 0 1
812 2 12.704605973791455 11.493064253670942 3.5501799829310356 0 0 0
814 2 14.37155733540685 12.879483127128788 7.431762173556339 0 0 0
256 3 9.09512763396246 10.424161623595344 3.4864690686463313 0 0 0
106 2 11.663657801350691 9.956787127558329 1.8552205136369668 0 0 0
253 3 12.446147510577656 7.895488384168552 24.945912779146656 0 0 -1
258 3 15.66076121086443 5.567538137293666 3.234676284958401 0 0 0
261 3 10.495483005945095 9.978614425523215 24.418011556973386 0 0 -1
262 3 14.392810961804466 7.779945525056178 2.4697609764373345 0 0 0
264 3 11.73749431332321 15.208604531219347 5.656424572225038 0 0 0
49 1 7.507548092344095 12.145050827538796 23.462846939003047 0 0 -1
429 2 14.673453782085947 12.692414305895486 4.179502074678872 0 0 0
505 3 14.86090759002918 12.089299140123586 15.570197323133163 0 0 -1
1711 4 6.758895698675159 11.065396845197656 4.702606570238631 0 0 1
428 2 12.920989664320643 12.928916949609336 1.7202285630380951 0 0 0
508 3 16.860338294027564 3.627189075590499 3.856323104555093 0 0 0
259 3 15.298306356000348 12.354381492673667 20.37911339557958 0 0 -1
373 1 17.599731229122465 13.384622617930724 4.641981912187956 0 0 0
516 3 17.62495919660435 13.820301584937386 22.71663863538679 0 0 -1
427 2 14.657887981200314 14.661131728049254 4.206569988624784 0 0 0
510 3 18.761181448249943 10.128161952547153 2.8261959916355015 0 0 0
513 3 10.478087296470337 11.62642625289041 2.3452942728249626 0 0 0
447 2 17.10049966602421 13.867993387650406 5.4031693379279755 0 0 0
511 3 16.029222919792264 13.25191534969219 24.66960362308313 0 0 -1
1732 4 16.36930600757598 11.89690621653561 5.17869431725243 0 0 1
2073 4 21.129720681656085 10.278884033181985 7.754453650992728 0 0 1
563 3 17.002167055883852 15.461400589304029 7.512803804799096 0 0 0
559 3 15.944394039039661 11.01461282420054 23.37446712817845 0 0 -1
564 3 20.164231685472433 9.240792016454002 23.65377130020596 0 0 -1
570 3 15.448747352049617 2.732117091569635 21.5263918026437 0 0 -1
391 1 19.351239715436808 11.760616706447248 5.544016261587723 0 0 0
565 3 25.48171532800154 12.16802285630824 3.205226512923658 0 0 0
507 3 18.707206732632347 10.83727547374143 24.792293446997807 0 0 -1
463 2 19.758707082429375 10.4704041812442 3.621310561546311 0 0 0
2807 4 18.802299042508803 12.69254016670583 3.8360067060186482 0 0 1
568 3 26.393329783462818 12.619863045013938 2.5000801462062734 0 0 0
2806 4 21.40836103227916 11.787751621125002 24.85006802939348 0 0 0
542 3 26.57493906594423 13.901387222536425 22.610529528576585 0 0 -1
2094 4 24.485275983635997 13.103004882281837 24.237468478151495 0 0 0
1174 2 22.055238158996588 12.136135733472043 2.026875751401323 0 0 0
617 3 20.62298670086797 14.85107091151559 4.671955119995064 0 0 0
466 2 23.586733684101546 15.243245189559984 4.5074408580800185 0 0 0
616 3 17.003054120703688 13.705869074847906 20.305815147300947 0 0 -1
67 2 25.754840164978425 7.8180931884465386 2.5627593354232183 -1 0 0
69 2 2.747342328106442 10.994888510936661 6.294411482958393 0 0 0
465 2 24.860169204136227 12.256265590912614 6.140287213582007 0 0 0
613 3 24.123703743158153 12.94585647195273 3.2433851701349887 0 0 0
409 1 25.7440306208654 9.116953280580729 19.529880517332195 0 0 -1
618 3 24.244979674518806 16.12757829383007 5.320901699951132 0 0 0
619 3 24.530672580597415 16.07205889984102 5.288587289747346 0 0 0
621 3 25.874495170410142 14.495399916583056 24.755688151021896 0 0 -1
622 3 3.282818497657937 7.72484268146621 2.8179354560711447 1 0 0
2098 4 25.30018722477657 9.787654422071284 1.5930112919206194 0 0 1
829 3 4.343481670910437 16.11713295137073 4.188014538540265 0 0 0
833 3 23.143010393540706 10.577673526046562 5.172903581878736 -1 0 0
834 3 5.874721579410718 18.730330040546722 3.398766069922322 0 0 0
838 3 26.431993040865756 14.583839831555002 23.188175389055733 -1 0 -1
840 3 2.6722654863281043 17.522070755980167 24.460952590745503 0 0 -1
721 1 3.302106733053285 19.57567975257424 5.510156610007096 0 0 0
883 3 8.17088576675906 16.194949942186426 4.47067332505153 0 0 0
850 3 1.8965638022294227 17.150760672414485 23.28164450874933 0 0 -1
835 3 25.904747427562114 16.231196020758745 3.151340991645118 -1 0 0
837 3 9.307365478863225 16.137214666429507 3.6206832752403373 0 0 0
16 1 1.5735209983149525 14.716095857284108 23.17811504511353 0 0 -1
34 1 2.65300960246369 13.039773839260015 22.779846497958676 0 0 -1
777 2 1.749291483880004 18.059168913859583 5.419709323055333 0 0 0
778 2 4.12212332908134 15.65010994611789 5.64325299336276 0 0 0
2445 4 4.572033303981085 11.487960062234707 8.847234988233122 0 0 1
2448 4 11.60143145155477 18.885295329583307 4.221137450533143 0 0 1
2442 4 3.3730824076334924 13.33341787616554 8.376250530197524 0 0 1
2478 4 7.753582681800285 20.55304943095032 5.138473990251539 0 0 1
795 2 7.634548616021909 17.732112652892706 5.654207865950074 0 0 0
887 3 10.056056292964334 16.008575007204335 2.9335884411259 0 0 0
888 3 9.694213158278622 16.854643171232524 3.93637029554221 0 0 0
894 3 13.535362245943093 21.003845339089324 24.24566245150126 0 0 -1
813 2 12.772642810458878 19.179043339145245 4.836833900860032 0 0 0
886 3 10.586017599467658 16.559824999092644 4.1755897478724195 0 0 0
892 3 4.063056121165746 17.82492944064319 2.9881630063666567 0 0 0
739 1 9.500706370890414 15.893100196262232 22.30173891638315 0 0 -1
937 3 6.26827202748944 14.50902129089336 24.40765386463867 0 0 -1
742 1 1.9532118474596725 19.862694110780946 4.461719299737417 0 0 0
891 3 6.5701722163087855 14.731722634299826 4.328088247007831 0 0 0
207 3 10.91109475673517 18.062943766467555 3.622300981649905 0 0 0
741 1 6.349830727253072 10.577569368307563 1.9993531814379981 0 0 0
2480 4 6.152474169270948 14.907956068905554 5.4048902013612405 0 0 1
2444 4 11.63338680746837 14.671335735345437 5.977915267308796 0 0 1
811 2 8.332037131577707 18.891236285661027 25.032489341542277 0 0 -1
941 3 10.13172953159358 16.087100737620137 5.238208437484457 0 0 0
757 1 4.374649459676825 19.056718161016494 18.582735692588948 1 0 -1
940 3 16.49940157468826 22.540998298978977 7.0317306628730325 0 0 0
942 3 10.76962010020691 19.295638944489525 22.516449853971995 0 0 -1
946 3 15.643259164315962 14.73350167784657 2.1909098335620087 0 0 0
948 3 10.043054686091486 16.371143609390394 24.789832913538724 0 0 -1
1189 3 15.698559077108683 12.971884494547655 23.107616709353902 0 0 -1
1135 2 9.985240125704514 13.061093365701804 23.28253252257763 0 0 -1
1137 2 12.03818248392049 17.001908670588353 3.756564533944068 0 0 0
760 1 12.419810808205158 15.7006916826836 1.4266809837048784 0 0 0
945 3 8.491786989240268 16.972780881731417 9.940606389381891 0 0 0
958 3 6.549109904724377 18.169184012108232 3.609568316261576 0 0 0
2440 4 2.3276672388642057 15.10508200587215 4.0088952499806565 0 0 1
1192 3 17.78228759031658 16.4913207587843 21.91683107128984 0 0 -1
1081 1 19.472119042522337 19.201055774460215 3.0097748314593105 0 0 0
1193 3 11.965885396083511 12.45731801210011 24.511785335226353 0 0 -1
1194 3 15.22226474771497 14.728980582556037 24.795707953806932 0 0 -1
1200 3 11.650912081728006 21.02483957784303 3.715042496624498 0 0 0
1138 2 16.006107365702515 17.479555100831096 3.6537415606537524 0 0 0
1155 2 16.605619051963245 17.829062228358346 25.215572835127 0 0 -1
1210 3 17.128175404234508 15.27371219518543 21.45010678086867 0 0 -1
1142 2 15.43122435183103 15.038549531061616 4.056096423417815 0 0 0
376 1 12.661027171722672 16.226240735026803 2.359803201626533 0 0 0
394 1 18.300970400587822 13.187598516400197 4.051519129716524 0 0 0
2841 4 13.116068534913579 14.766447810701218 6.198877703486404 0 0 1
1191 3 15.627966442931719 19.214398792424465 1.499984403653896 0 0 0
1190 3 10.16487959963554 14.174117098823965 2.8521842538235296 0 0 0
1153 2 18.817762937665194 9.448333842698739 2.176230333653701 0 0 0
1243 3 14.460956207116034 14.784759381829844 20.628317659611326 0 0 -1
1247 3 14.089950504981642 10.505126288973761 4.191359151568691 0 0 0
1248 3 21.78469850721599 19.83851571839212 23.864091718944657 0 0 -1
1254 3 13.220149451304952 18.210870193231585 1.6767324055499115 0 0 0
1156 2 20.976010074362925 14.547995447243911 1.7744011338684182 0 0 0
1099 1 17.93481568593605 17.960169760705433 3.3291401870521877 0 0 0
1246 3 23.898081509597016 15.246168874362171 6.300290133727605 0 0 0
1252 3 22.83056435239922 13.605251112203105 5.093360354611635 0 0 0
1301 3 25.59683977802933 14.883485580874039 5.01203995383111 0 0 0
1102 1 18.9158006026884 16.7304521494556 2.930467977305481 0 0 0
1251 3 23.331011343659313 15.62122194228041 22.33848618721718 0 0 -1
1264 3 20.021348763021397 15.669684726275632 7.8678143389537905 0 0 0
412 1 16.904364760884366 17.620639742803593 3.38038749816295 0 0 0
567 3 23.86318739547193 14.012679019349756 3.619049087747904 0 0 0
560 3 26.000636920454614 14.541407340605241 3.0453333855387656 0 0 0
2804 4 11.820089633653073 9.117283985861114 3.645560536728465 0 0 1
2832 4 14.985426418646636 21.576514190355645 8.48368366375009 0 0 1
2801 4 19.095807205692072 12.958498099544835 2.6725359998559113 0 0 1
1173 2 26.375545926124573 16.589772813022073 3.9202090606192086 0 0 0
1297 3 23.20332521286976 20.08867550565675 24.614626087169757 0 0 -1
1172 2 22.042739095271784 15.782365396070622 2.693399717558117 0 0 0
1117 1 24.423969341598276 19.83974536176554 2.6570244920314803 0 0 0
1300 3 25.73944523704393 15.25191716546128 3.6398877848157785 0 0 0
1302 3 25.502062909815912 13.892629500739663 4.584569244883089 0 0 0
1306 3 19.585199660638626 12.943338106166504 4.139030502104621 0 0 0
1308 3 21.69552063494592 20.450852549555183 23.195374323509956 0 0 -1
724 1 24.45440518992876 20.097521158375574 2.0114901547408186 -1 0 0
1180 2 23.58802528424739 14.802635622523955 3.3353275769321216 0 0 0
1305 3 5.2071759596884135 16.575950706723322 3.1970198510836996 1 0 0
849 3 26.21019802574537 22.703776732475745 2.7922049865234486 -1 0 0
784 2 5.198736112337498 19.56133017210753 4.908243340429299 0 0 0
847 3 22.78635186650414 19.87214678551922 3.3440447554239463 -1 0 0
851 3 4.932513932829688 16.585929331254285 2.8502679324817604 0 0 0
783 2 2.0310975861308607 18.611996573307184 6.82561469151587 0 0 0
790 2 1.8521243281766977 19.03058512635593 3.0852454872094857 0 0 0
852 3 25.121672532607015 12.834141307606473 5.306864166769769 -1 0 0
858 3 25.52532763710293 24.410349245677157 3.6864038391024065 -1 0 0
868 3 7.094901776949993 20.30352314344769 24.114550549626934 0 0 -1
869 3 1.5181011265914082 3.450465194024359 21.135491582504628 0 1 -1
727 1 8.30359983607261 23.925035999741564 24.636684573585327 0 0 -1
801 2 5.317665550226334 20.404927581633174 5.502669915857994 0 0 0
853 3 7.884703500260199 16.44882645831779 9.132265463957536 0 0 0
855 3 24.91072092085826 22.923791715439 5.578911094068496 -1 0 0
903 3 5.172916860112451 17.29971661731336 4.182499656325849 0 0 0
901 3 9.782081953801963 15.36202384908962 4.495652261168834 0 0 0
802 2 7.069728100615374 22.232340695478992 4.179607750220937 0 0 0
889 3 12.32890646110766 16.644240637484668 2.531221136091852 0 0 0
904 3 13.195418594467963 20.99146127582849 21.56526274387117 0 0 -1
910 3 10.97898435824023 17.49880055406082 24.942327019903832 0 0 -1
906 3 5.418622625555581 24.197871309990582 6.743372149754783 0 0 0
923 3 10.027127690249934 22.077356711071037 4.435792897249506 0 0 0
748 1 7.570705572534892 19.896259603416762 2.4242793603517834 0 0 0
909 3 9.593400981008134 21.72177201340697 22.6687069135475 0 0 -1
745 1 5.014185155059511 22.929853011519743 22.89221440773002 0 0 -1
766 1 6.860961628765144 23.05198450759867 25.204857537848184 0 0 -1
2465 4 5.526806558418139 18.467770582007454 6.085270581687652 0 0 1
770 1 11.955389722056257 19.66429449734391 2.152949778775339 0 0 0
955 3 7.493382089959422 13.313960331786765 6.090167605761355 0 0 0
818 2 13.31062691188394 20.122798820931667 3.3560632189068387 0 0 0
820 2 9.75407478545485 18.245968397766667 4.274579760714734 0 0 0
964 3 16.933532140243443 22.138954065221625 3.466223302602555 0 0 0
1084 1 8.473370371664283 22.002860182091805 2.0580079403608362 0 0 0
819 2 13.757236780082618 22.22307200402776 2.7839977560834503 0 0 0
824 2 14.367393954932115 19.88895896469831 5.862483228760723 0 0 0
763 1 13.628690269443174 24.698304390926438 4.091554069839568 0 0 0
960 3 8.57255605072293 14.117389787458073 1.6008490275893918 0 0 0
961 3 15.90662195851228 20.130102915092575 23.534382734454226 0 0 -1
963 3 18.510899657479833 15.683076764404758 24.733831896554197 0 0 -1
1141 2 10.397522257618267 19.476244232282472 1.9426545284222307 0 0 0
1143 2 13.197975320836075 21.20193810203542 2.141740907430583 0 0 0
2470 4 8.085032439082408 20.826640169364598 4.24256403264752 0 0 1
2802 4 10.797881951048405 25.73826740266546 3.6675232785607887 0 0 1
1207 3 19.522703500160457 20.124713441532403 25.16513966258251 0 0 -1
1211 3 15.699459033758362 20.5834162759946 2.9257686137513224 0 0 0
1216 3 13.005157128898533 19.425484912643665 24.368826165360193 0 0 -1
1144 2 13.90388174186404 19.8650152375515 5.1001133606181535 0 0 0
1195 3 17.84500718909711 20.27779690053337 3.5788021216426085 0 0 0
1197 3 11.44031051374691 18.65562968780428 3.8496979005008063 0 0 0
1261 3 15.250414140721093 19.938948376706698 21.78111261858124 0 0 -1
1212 3 14.153415174596141 22.07129454361842 7.425689329404965 0 0 0
1087 1 14.433386303124957 18.65903478061575 2.6122539600281205 0 0 0
1218 3 13.743907519336412 19.450393187192155 24.036856116511153 0 0 -1
2829 4 22.229569062968327 22.45076156458871 2.5822664736916545 0 0 1
1161 2 21.166516735716133 20.68116022775598 7.098733649814629 0 0 0
1215 3 16.831895418643313 22.09144911568171 3.0650580644347625 0 0 0
1108 1 14.667883645631617 20.432558566893487 2.288107248483669 0 0 0
1262 3 13.136324160959093 21.744566594163537 5.033887951354984 0 0 0
1263 3 17.99591970566572 20.620021965600795 3.8861729797501448 0 0 0
1265 3 20.4347044086117 21.41086465650447 24.505020433189962 0 0 -1
1162 2 23.645465088490273 21.393160235820034 6.376428201760757 0 0 0
1120 1 20.30662724255212 14.88005207231585 3.6877307329445497 0 0 0
1270 3 23.3643572799571 15.484859852261222 4.551389357935394 0 0 0
1315 3 19.153836358906684 23.367610875778006 4.1721866209108915 0 0 0
1266 3 14.707746062357552 19.37971462028022 4.5550156560049375 0 0 0
1272 3 16.43421785452456 20.10577198313045 3.911942212278937 0 0 0
1283 3 22.27434266716885 21.478888071263057 3.6064739207634733 0 0 0
1168 2 24.325022105268797 19.3843282411471 2.2271548452933954 0 0 0
1177 2 19.0552112243102 20.857735330359 4.392624198843147 0 0 0
1105 1 20.46840311140833 1.6155882020160122 24.336854524776342 0 1 -1
1267 3 22.62121292435354 24.580902887213487 23.854471612087433 0 0 -1
2794 4 5.619314045502955 18.998171257047392 8.903790403042853 1 0 1
1298 3 23.16750167926751 17.916122693451513 25.092811865673518 0 0 -1
1178 2 25.884831897663332 20.566880182949788 4.972543368306618 0 0 0
1318 3 20.27459488516932 17.06728112935464 1.51650251565228 0 0 0
1324 3 19.800121887518145 21.993626790302717 23.083343899533613 0 0 -1
1106 1 25.289753952771218 18.031461284100583 1.6801453135357949 0 0 0
1179 2 23.18762461497266 24.731669664476303 5.443573896296237 0 0 0
1186 2 22.217292857920615 24.053517726588282 6.874921879120017 0 0 0
1123 1 24.576237967576322 20.568411978858514 22.963295197603287 0 0 -1
1320 3 2.7306055230927004 23.270825440236493 5.178403369313596 1 0 0
1321 3 25.58763841572134 16.81727243081474 3.5603571310597957 0 0 0
1326 3 25.059056104309885 18.87500330354936 1.5867546862508055 0 0 0
2830 4 2.353013346732681 21.364718021640662 2.9210902698777024 1 0 1
867 3 23.86369173189794 24.825870044588125 2.2881552629409487 -1 0 0
788 2 1.5923175647696721 23.99157826606717 24.55498713159321 0 0 -1