LAMMPS (2 Aug 2023 - Update 3)
KOKKOS mode with Kokkos version 3.7.2 is enabled (src/KOKKOS/kokkos.cpp:108)
  will use up to 2 GPU(s) per node
WARNING: When using a single thread, the Kokkos Serial backend (i.e. Makefile.kokkos_mpi_only) gives better performance than the OpenMP backend (src/KOKKOS/kokkos.cpp:238)
  using 1 OpenMP thread(s) per MPI task
package kokkos
package kokkos newton on neigh half
############################################################
# KOKKOS benchmark input — shortened version of the
# testing__LAMMPS/.../in.lammps (single NPT loop, 5k steps).
#
# Model is set via the LAMMPS variable ${MODEL} (injected at
# runtime via `lmp -var MODEL <path>`), so the same input
# drives both PT (.pth) and PT+KOKKOS runs without editing.
############################################################

echo            both

variable        T1                  equal 3200
variable        T2                  equal 4800
variable        P1                  equal 100E4
variable        P2                  equal 10E4

variable        TEMP                equal ((${T1}+${T2})/2)
variable        TEMP                equal ((3200+${T2})/2)
variable        TEMP                equal ((3200+4800)/2)
variable        PRES                equal ((${P1}+${P2})/2)
variable        PRES                equal ((1000000+${P2})/2)
variable        PRES                equal ((1000000+100000)/2)

variable        TIMESTEP            equal 0.5e-3
variable        THERMO_FREQ         equal 100
variable        DUMP_FREQ           equal 500
variable        NSTEPS_relax        index 200
variable        NSTEPS_4training    index 5000
variable        TAU_T               equal 0.0100000
variable        TAU_P               equal 0.100000

variable        kBeV                equal 8.617333262e-5
variable        TeV                 equal ${TEMP}*${kBeV}
variable        TeV                 equal 4000*${kBeV}
variable        TeV                 equal 4000*8.617333262e-05

units           metal
boundary        p p p
atom_style      atomic
neighbor        1.0 bin
neigh_modify    every 1 delay 0 check no

read_data       conf.lmp
Reading data file ...
  orthogonal box = (0 0 0) to (28.02 28.02 26.56)
  1 by 1 by 1 MPI processor grid
  reading atoms ...
  2880 atoms
  read_data CPU = 0.018 seconds

# ${MODEL} is injected via `lmp -var MODEL <path>` from the sub script.
pair_style      deepmd ${MODEL} fparam ${TeV}
pair_style      deepmd /work/nvme/bguf/akashgpt/softwares/installing_MLMD_related_stuff/deepmd-kit__w_plumed/testing__LAMMPS__kokkos_bench/He_MgSiO3__54MgSiO3_90He/shared/model_comp.pth fparam ${TeV}
pair_style      deepmd /work/nvme/bguf/akashgpt/softwares/installing_MLMD_related_stuff/deepmd-kit__w_plumed/testing__LAMMPS__kokkos_bench/He_MgSiO3__54MgSiO3_90He/shared/model_comp.pth fparam 0.34469333048
Summary of lammps deepmd module ...
  >>> Info of deepmd-kit:
  installed to:       /work/nvme/bguf/agupta46/softwares/conda_envs_dir_secondary/envs/ALCHEMY_env__PT
  source:             v3.1.3
  source branch:      HEAD
  source commit:      b2c8511e
  source commit at:   2026-03-18 14:20:41 +0000
  support model ver.: 1.1 
  build variant:      cuda
  build with pt lib:  torch;torch_library;/work/nvme/bguf/agupta46/softwares/conda_envs_dir_secondary/envs/ALCHEMY_env__PT/lib/libc10.so;CUDA::nvrtc;/work/nvme/bguf/agupta46/softwares/conda_envs_dir_secondary/envs/ALCHEMY_env__PT/lib/libc10_cuda.so
  set tf intra_op_parallelism_threads: 0
  set tf inter_op_parallelism_threads: 0
  >>> Info of lammps module:
  use deepmd-kit at:  /u/agupta46/.local
  source:             
  source branch:      
  source commit:      
  source commit at:   
  build with inc:     
  build with lib:     
pair_coeff      * *

# Equilibration
reset_timestep  0
velocity        all create ${T1} 6149
velocity        all create 3200 6149
fix             NPTSTATE all npt temp ${T1} ${T1} ${TAU_T} iso ${P1} ${P1} ${TAU_P}
fix             NPTSTATE all npt temp 3200 ${T1} ${TAU_T} iso ${P1} ${P1} ${TAU_P}
fix             NPTSTATE all npt temp 3200 3200 ${TAU_T} iso ${P1} ${P1} ${TAU_P}
fix             NPTSTATE all npt temp 3200 3200 0.01 iso ${P1} ${P1} ${TAU_P}
fix             NPTSTATE all npt temp 3200 3200 0.01 iso 1000000 ${P1} ${TAU_P}
fix             NPTSTATE all npt temp 3200 3200 0.01 iso 1000000 1000000 ${TAU_P}
fix             NPTSTATE all npt temp 3200 3200 0.01 iso 1000000 1000000 0.1
timestep        ${TIMESTEP}
timestep        0.0005
thermo          ${THERMO_FREQ}
thermo          100
thermo_style    custom step temp press vol etotal ke pe enthalpy
run             ${NSTEPS_relax}
run             100

CITE-CITE-CITE-CITE-CITE-CITE-CITE-CITE-CITE-CITE-CITE-CITE-CITE

Your simulation uses code contributions which should be cited:

- USER-DEEPMD package:

@article{Wang_ComputPhysCommun_2018_v228_p178,
  author = {Wang, Han and Zhang, Linfeng and Han, Jiequn and E, Weinan},
  doi = {10.1016/j.cpc.2018.03.016},
  url = {https://doi.org/10.1016/j.cpc.2018.03.016},
  year = 2018,
  month = {jul},
  publisher = {Elsevier {BV}},
  volume = 228,
  journal = {Comput. Phys. Commun.},
  title = {{DeePMD-kit: A deep learning package for many-body potential energy representation and molecular dynamics}},
  pages = {178--184}
}
@article{Zeng_JChemPhys_2023_v159_p054801,
  title  = {{DeePMD-kit v2: A software package for deep potential models}},
  author =   {Jinzhe Zeng and Duo Zhang and Denghui Lu and Pinghui Mo and Zeyu Li
         and Yixiao Chen and Mari{\'a}n Rynik and Li'ang Huang and Ziyao Li and 
         Shaochen Shi and Yingze Wang and Haotian Ye and Ping Tuo and Jiabin
         Yang and Ye Ding and Yifan Li and Davide Tisi and Qiyu Zeng and Han 
         Bao and Yu Xia and Jiameng Huang and Koki Muraoka and Yibo Wang and 
         Junhan Chang and Fengbo Yuan and Sigbj{\o}rn L{\o}land Bore and Chun
         Cai and Yinnian Lin and Bo Wang and Jiayan Xu and Jia-Xin Zhu and 
         Chenxing Luo and Yuzhi Zhang and Rhys E A Goodall and Wenshuo Liang
         and Anurag Kumar Singh and Sikai Yao and Jingchao Zhang and Renata
         Wentzcovitch and Jiequn Han and Jie Liu and Weile Jia and Darrin M
         York and Weinan E and Roberto Car and Linfeng Zhang and Han Wang},
  journal =  {J. Chem. Phys.},
  volume =   159,
  issue =    5,  
  year =    2023,
  pages  =   054801,
  doi =      {10.1063/5.0155600},
}
@Article{Zeng_JChemTheoryComput_2025_v21_p4375,
  author =   {Jinzhe Zeng and Duo Zhang and Anyang Peng and Xiangyu Zhang and Sensen
             He and Yan Wang and Xinzijian Liu and Hangrui Bi and Yifan Li and Chun
             Cai and Chengqian Zhang and Yiming Du and Jia-Xin Zhu and Pinghui Mo
             and Zhengtao Huang and Qiyu Zeng and Shaochen Shi and Xuejian Qin and
             Zhaoxi Yu and Chenxing Luo and Ye Ding and Yun-Pei Liu and Ruosong Shi
             and Zhenyu Wang and Sigbj{\o}rn L{\o}land Bore and Junhan Chang and
             Zhe Deng and Zhaohan Ding and Siyuan Han and Wanrun Jiang and Guolin
             Ke and Zhaoqing Liu and Denghui Lu and Koki Muraoka and Hananeh Oliaei
             and Anurag Kumar Singh and Haohui Que and Weihong Xu and Zhangmancang
             Xu and Yong-Bin Zhuang and Jiayu Dai and Timothy J. Giese and Weile
             Jia and Ben Xu and Darrin M. York and Linfeng Zhang and Han Wang},
    title =    {{DeePMD-kit v3: A Multiple-Backend Framework for Machine Learning
             Potentials}},
  journal =  {J. Chem. Theory Comput.},
  year =     2025,
  volume =   21,
  number =   9,
  pages =    {4375--4385},
  doi =      {10.1021/acs.jctc.5c00340},
}

CITE-CITE-CITE-CITE-CITE-CITE-CITE-CITE-CITE-CITE-CITE-CITE-CITE

Generated 0 of 6 mixed pair_coeff terms from geometric mixing rule
Neighbor list info ...
  update: every = 1 steps, delay = 0 steps, check = no
  max neighbors/atom: 2000, page size: 100000
  master list distance cutoff = 7
  ghost atom cutoff = 7
  binsize = 7, bins = 5 5 4
  1 neighbor lists, perpetual/occasional/extra = 1 0 0
  (1) pair deepmd, perpetual
      attributes: full, newton on
      pair build: full/bin/atomonly
      stencil: full/bin/3d
      bin: standard
Per MPI rank memory allocation (min/avg/max) = 4.859 | 4.859 | 4.859 Mbytes
   Step          Temp          Press          Volume         TotEng         KinEng         PotEng        Enthalpy   
         0   3200           109107.31      20852.798     -21789.644      1190.8479     -22980.492     -20369.581    
       100   3668.3444      593948.42      13744.38      -19005.729      1365.1375     -20370.866     -13910.502    
Loop time of 15.1158 on 1 procs for 100 steps with 2880 atoms

Performance: 0.286 ns/day, 83.977 hours/ns, 6.616 timesteps/s, 19.053 katom-step/s
97.9% CPU use with 1 MPI tasks x 1 OpenMP threads

MPI task timing breakdown:
Section |  min time  |  avg time  |  max time  |%varavg| %total
---------------------------------------------------------------
Pair    | 8.0883     | 8.0883     | 8.0883     |   0.0 | 53.51
Neigh   | 6.8102     | 6.8102     | 6.8102     |   0.0 | 45.05
Comm    | 0.16607    | 0.16607    | 0.16607    |   0.0 |  1.10
Output  | 8.4748e-05 | 8.4748e-05 | 8.4748e-05 |   0.0 |  0.00
Modify  | 0.045144   | 0.045144   | 0.045144   |   0.0 |  0.30
Other   |            | 0.006012   |            |       |  0.04

Nlocal:           2880 ave        2880 max        2880 min
Histogram: 1 0 0 0 0 0 0 0 0 0
Nghost:           8693 ave        8693 max        8693 min
Histogram: 1 0 0 0 0 0 0 0 0 0
Neighs:              0 ave           0 max           0 min
Histogram: 1 0 0 0 0 0 0 0 0 0
FullNghs:       864508 ave      864508 max      864508 min
Histogram: 1 0 0 0 0 0 0 0 0 0

Total # of neighbors = 864508
Ave neighs/atom = 300.17639
Neighbor list builds = 100
Dangerous builds not checked
unfix           NPTSTATE

# Main timed loop — this is the number used for the ms/step metric.
velocity        all create ${T1} 6149
velocity        all create 3200 6149
fix             4TRAINING all npt temp ${T1} ${T2} ${TAU_T} iso ${P1} ${P2} ${TAU_P}
fix             4TRAINING all npt temp 3200 ${T2} ${TAU_T} iso ${P1} ${P2} ${TAU_P}
fix             4TRAINING all npt temp 3200 4800 ${TAU_T} iso ${P1} ${P2} ${TAU_P}
fix             4TRAINING all npt temp 3200 4800 0.01 iso ${P1} ${P2} ${TAU_P}
fix             4TRAINING all npt temp 3200 4800 0.01 iso 1000000 ${P2} ${TAU_P}
fix             4TRAINING all npt temp 3200 4800 0.01 iso 1000000 100000 ${TAU_P}
fix             4TRAINING all npt temp 3200 4800 0.01 iso 1000000 100000 0.1
timestep        ${TIMESTEP}
timestep        0.0005
thermo          ${THERMO_FREQ}
thermo          100
thermo_style    custom step temp press vol etotal ke pe enthalpy
dump            myDUMP all custom ${DUMP_FREQ} npt.dump id type element x y z
dump            myDUMP all custom 500 npt.dump id type element x y z
dump_modify     myDUMP sort id
dump_modify     myDUMP element Mg Si O He
run             ${NSTEPS_4training}
run             500
Generated 0 of 6 mixed pair_coeff terms from geometric mixing rule
Per MPI rank memory allocation (min/avg/max) = 6.016 | 6.016 | 6.016 Mbytes
   Step          Temp          Press          Volume         TotEng         KinEng         PotEng        Enthalpy   
       100   3200           580155.35      13744.38      -19226.746      1190.8479     -20417.594     -14249.844    
       200   4206.4702      781963.67      13150.78      -18774.698      1565.3956     -20340.094     -12356.285    
       300   3968.9986      635267.89      13224.565     -19756.166      1477.023      -21233.189     -14512.585    
       400   4190.8428      449114.94      13591.093     -20359.478      1559.5801     -21919.058     -16549.683    
       500   4223.6782      271731.17      14104.868     -20934.222      1571.7994     -22506.021     -18542.018    
       600   4710.1974      147213.93      15214.008     -21129.262      1752.8527     -22882.115     -19731.343    
Loop time of 69.3484 on 1 procs for 500 steps with 2880 atoms

Performance: 0.311 ns/day, 77.054 hours/ns, 7.210 timesteps/s, 20.765 katom-step/s
99.4% CPU use with 1 MPI tasks x 1 OpenMP threads

MPI task timing breakdown:
Section |  min time  |  avg time  |  max time  |%varavg| %total
---------------------------------------------------------------
Pair    | 31.402     | 31.402     | 31.402     |   0.0 | 45.28
Neigh   | 36.911     | 36.911     | 36.911     |   0.0 | 53.23
Comm    | 0.79848    | 0.79848    | 0.79848    |   0.0 |  1.15
Output  | 0.0048475  | 0.0048475  | 0.0048475  |   0.0 |  0.01
Modify  | 0.20378    | 0.20378    | 0.20378    |   0.0 |  0.29
Other   |            | 0.02796    |            |       |  0.04

Nlocal:           2880 ave        2880 max        2880 min
Histogram: 1 0 0 0 0 0 0 0 0 0
Nghost:           8335 ave        8335 max        8335 min
Histogram: 1 0 0 0 0 0 0 0 0 0
Neighs:              0 ave           0 max           0 min
Histogram: 1 0 0 0 0 0 0 0 0 0
FullNghs:       779356 ave      779356 max      779356 min
Histogram: 1 0 0 0 0 0 0 0 0 0

Total # of neighbors = 779356
Ave neighs/atom = 270.60972
Neighbor list builds = 500
Dangerous builds not checked
unfix           4TRAINING
undump          myDUMP

write_data      conf.lmp.end
System init for write_data ...
Generated 0 of 6 mixed pair_coeff terms from geometric mixing rule
Total wall time: 0:01:30
