LAMMPS data file via write_data, version 2 Aug 2023, timestep = 120, units = metal

28800 atoms
4 atom types

1.9693521772023743 54.07064782279755 xlo xhi
1.9693521772023743 54.07064782279755 ylo yhi
2.333422279911467 64.06657772008857 zlo zhi

Masses

1 24.305
2 28.0855
3 15.9994
4 4.002602

Atoms # atomic/kk

1 1 3.2342284377684294 5.113229148942973 3.233979339039784 0 0 0
58 2 4.941024735312858 2.6500714679654043 5.154493600344091 0 0 0
109 3 53.513144403163956 2.665899003477302 4.557241657414119 -1 0 0
112 3 5.338263519220966 53.65390042678491 4.63342659736327 0 -1 0
114 3 3.058346026230133 5.82287323132234 4.272266762164058 0 0 0
118 3 5.474218435567618 4.400928518566706 4.585137699440378 0 0 0
120 3 2.324433610359321 6.456717443363709 3.2992090493747113 0 0 0
115 3 4.655425620108312 4.576552465364928 62.97725670562664 0 0 -1
117 3 4.807439375462796 4.59437860778844 6.366941400509259 0 0 0
73 2 6.542121353921737 4.094595389127088 2.9559556307668733 0 0 0
75 2 7.28878670526331 5.017577578712429 6.1325916964223985 0 0 0
163 3 6.314822547328597 3.1449252632075755 4.021525516278986 0 0 0
168 3 6.620303805562088 4.446609349911512 6.553033291255355 0 0 0
174 3 6.686950119274216 5.2445398045230505 2.354701427681275 0 0 0
19 1 7.7948311345858174 5.045146847316531 4.034976011459066 0 0 0
76 2 8.491438625693416 2.1839738148491152 6.363389363628949 0 0 0
23327 4 4.923954359470109 3.854535638114058 4.87415776760209 0 0 1
93 2 11.587341608561328 5.15897933242144 5.851157996496975 0 0 0
166 3 9.200381640825817 3.0375372688316773 2.5280041111081437 0 0 0
172 3 10.28295837772602 2.9071639323664487 5.26179401873979 0 0 0
217 3 9.744394700063175 3.5437253880849084 3.5615698646530602 0 0 0
228 3 13.132720098815975 5.61315176307681 3.4987303620387684 0 0 0
222 3 12.930234307816649 4.227601390940446 5.199616622548129 0 0 0
169 3 9.357036652534667 4.899415433049665 2.632875819159569 0 0 0
171 3 9.208727492657703 5.068152927250884 4.347350008779227 0 0 0
37 1 12.521205474286079 3.6834820155474564 3.9325675411427605 0 0 0
94 2 13.8525081554697 2.476926958075361 5.670358662747099 0 0 0
220 3 13.912418173028385 2.236383133977865 4.958869250172569 0 0 0
415 2 15.540557775221455 3.3224593415426167 2.394582035654068 0 0 0
417 2 15.384048091559288 4.5698817677978045 5.902580258621656 0 0 0
469 3 14.211189639253568 2.9973915194302796 5.00894763712486 0 0 0
225 3 13.657758668261076 5.194005196831787 5.9296667281869535 0 0 0
418 2 17.357303925592316 2.82500330346616 6.25636358058405 0 0 0
361 1 17.703589678905942 3.6329905961586526 4.699690561432603 0 0 0
472 3 16.233406580892982 2.6594165093147386 5.252089220743332 0 0 0
473 3 16.691234100414647 3.9633535937236792 5.173133915920977 0 0 0
474 3 16.291376366719206 3.9297045292730193 4.984308164084995 0 0 0
478 3 16.79903079919203 3.78754895133188 5.5402552960928535 0 0 0
480 3 17.315229149582354 4.928018146900687 3.60835818769434 0 0 0
433 2 19.296984006395505 4.347095515040023 2.6183974653799726 0 0 0
435 2 18.972936310510754 3.4366510391263088 5.89922146335677 0 0 0
475 3 19.350044880811737 4.595265687148148 63.405374502555134 0 0 -1
523 3 19.346536204506794 4.764792592304532 2.5003299405559716 0 0 0
528 3 21.278795225485677 4.245870959456916 5.654180186181422 0 0 0
534 3 19.543455449840916 3.7475481385706635 3.4510360713192823 0 0 0
526 3 21.976081499684952 2.21138661549347 4.399171646893704 0 0 0
532 3 21.277178605820747 3.6176805362562483 4.396894259595438 0 0 0
379 1 21.95962527160082 4.841520028102314 2.884920925671555 0 0 0
577 3 23.27091792200458 5.059084155376371 5.060418530574677 0 0 0
581 3 24.946006853019 2.214455076846387 5.005898086477432 0 0 0
451 2 24.251059491272876 3.2927592947456583 2.504218293266574 0 0 0
453 2 23.227127882045224 3.2719220500933 5.477492083276238 0 0 0
582 3 25.76696262267755 4.058206031740466 5.550618761048294 0 0 0
397 1 27.064967683049822 3.45509329042745 3.871410475649145 0 0 0
588 3 24.915100771504108 4.023434052734587 63.6493665974424 0 0 -1
454 2 25.513181699766132 2.4226094762980765 5.5556012037844695 0 0 0
531 3 23.381492684123927 4.219707259877575 4.6443687645703395 0 0 0
580 3 27.298667594279806 2.9473417809937272 5.311001031077545 0 0 0
777 2 27.955274342295304 4.013560350507949 6.011175520253866 0 0 0
829 3 28.944350393210154 3.562246652190496 5.309113449184525 0 0 0
833 3 29.26468034845377 2.6123491179783214 4.801997334450003 0 0 0
834 3 30.074081070104956 5.004952831831218 5.478849207653427 0 0 0
840 3 30.10091346140105 5.1180572542712826 3.134823545265398 0 0 0
583 3 27.863648402091865 5.8936267872412795 63.62040692278219 0 0 -1
585 3 27.23024870954019 4.490300599232349 5.204672830386009 0 0 0
24045 4 29.885053403319777 4.383084159690377 4.527575277197258 0 0 1
778 2 29.600801888826528 2.598814225453937 5.032469527705548 0 0 0
721 1 30.773722815899678 4.4881422393001404 4.491728021136602 0 0 0
795 2 33.00455518419657 5.1959393801921365 6.464956474263215 0 0 0
883 3 32.251998751321665 3.907871979870591 4.931718095973974 0 0 0
835 3 30.794698045198952 4.399664953585979 3.213663108119991 0 0 0
837 3 31.647265800520273 4.2903654743784 6.203169653367211 0 0 0
888 3 33.60079648362423 5.339803659978465 4.318315842035605 0 0 0
894 3 33.71602977690331 5.296925580631113 2.967064130059557 0 0 0
739 1 35.54857418651841 4.659232059841361 2.746417687274486 0 0 0
813 2 36.50848553786912 5.142093243618179 4.69235395074401 0 0 0
886 3 35.322283112762356 3.504685696624203 4.439606015672085 0 0 0
892 3 34.620645983804415 2.0781202598714925 5.589769921720066 0 0 0
24043 4 41.393124241352304 2.5508001507026314 5.032170501912284 0 0 1
811 2 37.37120029172645 3.7853527861378087 64.0148890601907 0 0 -1
937 3 35.91067011733086 4.707543395742782 4.887154308625564 0 0 0
941 3 37.41484110819741 2.4318318280910507 4.828897683946437 0 0 0
757 1 39.035125606204666 4.706710539240797 3.256430458871879 0 0 0
940 3 40.60661161191229 3.360093842183109 3.500927963665764 0 0 0
942 3 36.63687814803261 4.81329571298166 3.9022520058698276 0 0 0
946 3 41.09624665973713 2.572685423765384 5.257798323818356 0 0 0
948 3 38.22852255512355 3.8395106621087214 2.768596997918531 0 0 0
945 3 39.5795911807215 4.2405516123706075 4.164459142187197 0 0 0
1189 3 40.761146704352235 3.0683198876499524 3.447479439655705 0 0 0
1192 3 42.9272737275942 2.5783237786904096 2.7221554511440775 0 0 0
1194 3 42.04333279043574 4.783209812277709 5.904815152159794 0 0 0
1200 3 42.83536883356861 6.142592990130161 3.409848352554349 0 0 0
1081 1 43.44877151879002 4.730337903355906 3.6899375062216326 0 0 0
1135 2 40.17032223359886 3.964981498155932 64.01302027288823 0 0 -1
1137 2 40.76088762982089 4.5548445611352 5.545125485661422 0 0 0
1138 2 44.146739829249874 2.343269444878916 5.154814322039206 0 0 0
1153 2 46.022947651802966 3.1926599784884537 2.8390677315357356 0 0 0
1155 2 44.981081550852856 4.932923704329594 5.077972283106214 0 0 0
1243 3 46.20047608010813 4.5339575661234175 4.087354520214158 0 0 0
1248 3 45.96635478872086 6.011588173435382 5.419255981395964 0 0 0
1254 3 47.267572226580526 5.990456522161644 2.5394276982765622 0 0 0
1249 3 48.94112454609298 4.938311257221871 63.78806395351599 0 0 -1
1251 3 49.58788606609424 4.224888306930476 3.7059673589530937 0 0 0
1297 3 51.36608705020422 5.203692222869814 3.352991554825363 0 0 0
1301 3 49.23700535957112 3.2416618715306194 5.290718557939752 0 0 0
1156 2 46.55391017803319 2.2162095300349245 5.362459379193286 0 0 0
1173 2 50.238602489057904 4.27746861024422 4.70191734628153 0 0 0
1246 3 48.12335652530934 3.2013120467709935 4.884918903449045 0 0 0
1252 3 49.558496319822 3.5618247348030483 4.903387150334282 0 0 0
1099 1 47.715005999405165 3.9887329267955987 4.044001775772932 0 0 0
57 2 53.243221733086635 3.1333897731721283 5.783407640732936 -1 0 0
1303 3 53.5200229930923 5.235311187409377 63.49137077740771 0 0 -1
1305 3 2.0972218698842093 3.7895735547389027 5.660076980089292 1 0 0
1308 3 49.696090922763744 5.2187984739491995 2.345944957487143 0 0 0
1172 2 51.599249771688925 2.516267320973745 3.183099514644817 0 0 0
1117 1 52.03770325397167 4.12723264582762 3.589005121148483 0 0 0
1300 3 52.17008456099349 2.3451841682224344 4.811841594279143 0 0 0
1302 3 52.032149287137734 5.4075797058473825 4.65949669532598 0 0 0
7 1 4.494959806642705 7.553508431348637 2.9310225662927114 0 0 0
63 2 2.6126277751998677 9.64393402088724 4.506845596957551 0 0 0
4 1 53.82018127302278 5.422892541956065 4.650737633054889 -1 0 0
62 2 4.900462175081705 7.290611334397196 2.382506982814697 0 0 0
64 2 4.01196563693464 6.887073227942807 4.707625596774486 0 0 0
130 3 4.319577452214304 7.324954959969863 3.564202014345358 0 0 0
127 3 53.87959264094681 7.486109841660264 4.944495559505058 -1 0 0
25 1 9.230936967835913 7.734294315989828 3.7822133642469433 0 0 0
81 2 6.1075807767864205 9.370518898744622 6.158076614090697 0 0 0
22 1 6.885294449489034 6.856656172003242 3.812417157839573 0 0 0
181 3 6.363368977405281 9.243459858467041 4.907832316799771 0 0 0
80 2 8.647598498165479 6.152392912783926 2.5947379335602134 0 0 0
82 2 7.640640546568736 6.071103427840297 5.725356427327599 0 0 0
184 3 8.763709523600713 5.643528151121006 2.4557874377072135 0 0 0
97 2 10.800708756408945 8.772537175137183 2.4503897307594054 0 0 0
99 2 10.456529204638711 9.543153700655902 4.734325953586795 0 0 0
235 3 11.21322592504207 8.81552701726999 2.6065767953010717 0 0 0
40 1 10.08631050591213 6.621427670696503 5.019251473998011 0 0 0
43 1 12.130381242481853 8.213900329764282 3.53572088010126 0 0 0
423 2 15.348342298755695 7.861793503107178 5.549787550307745 0 0 0
238 3 12.400594988145212 6.683861067869624 4.231231805774382 0 0 0
244 3 13.839376163150384 8.436735699352472 4.747393523812584 0 0 0
100 2 13.572202223431276 6.918581760627625 4.509211890277498 0 0 0
223 3 15.37965728781347 6.168414220493944 2.930160542828411 0 0 0
487 3 16.35905441897141 7.7013942269495566 3.6966947500619516 0 0 0
364 1 14.66891633997752 5.129651544294278 4.693874648437915 0 0 0
367 1 17.394125559090682 7.901295267071274 2.6973385840398567 0 0 0
439 2 18.800785340363657 8.776463689037875 3.1465381249181648 0 0 0
490 3 16.88729946994191 5.37736450623953 3.6047223321357893 0 0 0
496 3 17.809268137344738 7.6517420771079445 4.983344742688513 0 0 0
424 2 17.935884203712263 5.357515231562678 5.861021066657444 0 0 0
477 3 19.084885179077194 6.2316163191804295 4.602889193166422 0 0 0
441 2 19.440560031128 7.694307604347386 5.518809383263558 0 0 0
385 1 21.769687306047167 9.663555941974824 4.232783678544205 0 0 0
541 3 18.74914194357454 8.244212015674059 4.536809313620187 0 0 0
545 3 21.403198179444253 7.166745971635361 4.364544719200827 0 0 0
382 1 19.40998825762184 5.777293968049976 3.09889251649499 0 0 0
529 3 22.619139459141948 6.665181080018068 63.87222123156745 0 0 -1
544 3 21.46367897300711 7.107147864125553 4.2039025728537744 0 0 0
440 2 22.193035338298106 6.597485524127498 2.811185786220641 0 0 0
442 2 21.96564206738246 5.792605277650983 5.770148227273207 0 0 0
459 2 24.534388731351044 9.419896888895046 5.037140596930635 0 0 0
403 1 26.733497699568225 8.456890067887462 3.3718220393914193 0 0 0
595 3 24.47799529884225 8.860335083398912 3.548186039900674 0 0 0
400 1 24.61785574371326 6.76779860576985 4.197285997498318 0 0 0
598 3 26.05225149962726 7.0080034705112455 4.232901870414672 0 0 0
460 2 25.59496429612533 6.6488907009118225 6.292692450179228 0 0 0
783 2 28.585997867517477 7.664539388322761 5.556444544713833 0 0 0
724 1 27.257247692141632 6.181805655851369 4.109173869998323 0 0 0
847 3 28.24862719026264 8.404135342230617 4.963629493404872 0 0 0
851 3 29.48200564228778 7.525085949931525 5.212513892687715 0 0 0
727 1 30.235661524596427 9.131830398765189 3.425996868298792 0 0 0
801 2 32.01717468794912 8.126573466604576 6.321849103349366 0 0 0
784 2 30.42984728866771 7.3037926791501935 5.117810820785517 0 0 0
850 3 29.232259381158002 6.145245899391038 2.4884870225300486 0 0 0
742 1 32.81916977134467 5.803933742534699 3.677143398604037 0 0 0
901 3 33.94318234702633 7.635629712351083 4.9324396886828445 0 0 0
745 1 33.97684456001637 9.310164747124459 3.7609865254721098 0 0 0
802 2 34.908951713893025 6.781673511944711 5.526794398881148 0 0 0
904 3 35.07160439801438 6.124215713184794 4.657219181480805 0 0 0
889 3 36.5754697925904 6.683912581773247 3.7700255639290443 0 0 0
891 3 34.65845447857064 5.983957171097107 5.2052774989513715 0 0 0
819 2 37.38936215549849 9.405289558990404 4.598668778630807 0 0 0
763 1 39.858907880253874 9.756811742136613 4.45484847158171 0 0 0
760 1 37.777714323542284 6.23589370350363 2.9514401623402904 0 0 0
955 3 38.58403099937196 7.338812149334127 4.8952346446811 0 0 0
818 2 39.37851929892374 6.857121483521092 3.0150337256900515 0 0 0
820 2 38.20808153090345 7.02895851671424 6.200031822856142 0 0 0
958 3 38.22140248806772 6.116908640734936 3.2845306025072674 0 0 0
24402 4 39.57960823093131 8.934852144283564 4.829130500256005 0 0 1
1087 1 43.05691026048632 7.726348614323756 3.7742844602106307 0 0 0
1141 2 40.250694487688754 7.631842038636587 2.3390288329232796 0 0 0
1143 2 40.62932212402319 8.648572528650291 5.026099258318752 0 0 0
943 3 41.47478151605548 6.176064975446958 63.46003353262874 0 0 -1
1207 3 42.28676040565569 8.628460163977149 3.7263246187273515 0 0 0
1211 3 41.31184543147375 7.526606248522304 4.729192358505451 0 0 0
1084 1 40.460053781962515 6.698695316690506 4.591142920903071 0 0 0
1142 2 42.356290624548485 5.587731851286873 2.3617177759138195 0 0 0
1144 2 42.762164805823566 6.531672264112898 6.178191808260832 0 0 0
1161 2 44.871356676749414 7.986421175152265 6.189773911343071 0 0 0
1102 1 45.96623909027423 5.4411119153767 4.036088888760053 0 0 0
1210 3 43.707238933607606 5.452957858707308 2.501148900300489 0 0 0
1195 3 45.14917522672251 6.842917077814153 3.775681123108129 0 0 0
1197 3 44.839218650169215 6.775226476315106 6.239171090426899 0 0 0
1261 3 44.74242245273 8.759115302873017 3.7514744158560447 0 0 0
1265 3 46.475616753039986 6.98916847549891 5.2179301280914165 0 0 0
1177 2 49.127447796886294 8.855630827529396 2.9425438020213575 0 0 0
1179 2 50.06237802761124 8.813845763438492 5.868548117786593 0 0 0
1105 1 47.52082630677909 9.306273416381138 4.089872574731677 0 0 0
1315 3 48.983462760677256 8.772625539931912 3.842139014335666 0 0 0
1162 2 48.43589413389536 6.511696137774819 5.99013181458025 0 0 0
1264 3 46.62169638558896 5.519682829113556 4.738702903079744 0 0 0
1120 1 48.93461029348715 6.7422338523987975 3.3681875081369204 0 0 0
1270 3 48.66466626901586 6.5252814113664215 4.667185526294023 0 0 0
24400 4 52.00155233614647 9.866308354587101 4.696618631303934 0 0 1
24397 4 52.328946106031744 6.216749693391109 4.339172297682958 0 0 1
1123 1 51.85416143614057 8.577869593652181 3.6093406563115256 0 0 0
1318 3 51.00288333725262 6.592776015056297 4.08441121867383 0 0 0
1324 3 51.74036277507499 7.675257266197273 4.509763003176231 0 0 0
1178 2 51.87905325022756 6.695462657187064 2.916345487562411 0 0 0
1180 2 51.91692799878966 5.722689443362869 5.5766279775295065 0 0 0
154 3 4.549003822843717 11.548265558820619 5.061902522609753 0 0 0
10 1 3.000928418589142 11.561435433390413 4.212641839923558 0 0 0
132 3 4.576491052132086 10.503098369774062 4.1656421894999385 0 0 0
138 3 2.5743231303186933 9.012070054501228 3.7114633707658564 0 0 0
148 3 5.589925094049537 9.965577456534547 3.8672333561466674 0 0 0
149 3 3.703412349902358 10.845990158437033 4.893062178809454 0 0 0
68 2 4.976274664132729 11.621233255587974 2.7688223437465154 0 0 0
70 2 3.6715592143796276 9.70629977983238 6.154340756892789 0 0 0
133 3 4.118062430019782 9.11497047288956 2.565512018744582 0 0 0
192 3 8.730513020876543 8.257321007470267 63.03328110697123 0 0 -1
86 2 8.628031580151873 11.02496286819808 2.8525069939965557 0 0 0
88 2 8.920092313462382 10.476818452951685 5.618872594175852 0 0 0
28 1 7.173566312767845 10.621196999052806 3.434212466347363 0 0 0
135 3 5.398140796020611 9.991423301409704 4.2731874060776285 0 0 0
186 3 7.4937883772822405 9.123964052721071 4.303536789063407 0 0 0
46 1 9.85222753476845 11.295407344380951 3.112492213812067 0 0 0
187 3 8.513408560493893 9.753321117009543 3.7987170095320746 0 0 0
189 3 9.766895854977172 10.045882635887013 5.396437227816189 0 0 0
202 3 9.493184772471324 11.071636195767441 2.9244895521182674 0 0 0
240 3 11.133196500486951 10.690141942337464 5.6995664030305075 0 0 0
246 3 13.30953393355005 8.685868654825335 2.759023293746263 0 0 0
241 3 15.050409548481705 9.054330765477461 63.937023226407995 0 0 -1
243 3 15.323146821621213 10.123082761081792 4.222924355160935 0 0 0
256 3 14.088253929300535 10.975739006432246 4.33034235833237 0 0 0
106 2 13.210841470145665 10.881460940465466 4.842597673930829 0 0 0
370 1 13.844846612646531 9.872189718320401 4.610341933281319 0 0 0
262 3 14.426737935084649 11.628170757615433 5.427227276244964 0 0 0
492 3 16.199173762572602 10.056990851051342 4.9900011727217874 0 0 0
498 3 15.040932325759755 9.586833028762928 3.5920897054885885 0 0 0
508 3 16.89228554870727 11.420626726870873 3.795484877773794 0 0 0
428 2 16.53072538560246 11.485903527092495 2.4912684359759463 0 0 0
430 2 17.530953725101373 10.521194910051287 5.2788680533989005 0 0 0
493 3 19.05233179823068 9.071025948776942 3.186071792751005 0 0 0
495 3 17.568167771511717 8.560752856606364 4.899181647878072 0 0 0
546 3 21.29227206002072 10.835601797680761 6.599169254141641 0 0 0
552 3 20.461561213529382 8.937827235381974 3.7212039940945405 0 0 0
388 1 20.508144943254187 10.145873285319118 4.195422124385524 0 0 0
547 3 21.44406807039469 9.129648965065819 63.12706089281142 0 0 -1
562 3 22.42041079797763 9.514843574158805 3.5690862573780078 0 0 0
446 2 21.90421902694004 9.968641099705778 3.2184033801795016 0 0 0
448 2 21.961497945144064 10.355677072201326 5.394104346176489 0 0 0
549 3 23.480881433439635 10.879424124794697 4.31892185294755 0 0 0
406 1 23.599218124646256 10.714902392550563 4.473576980391021 0 0 0
617 3 24.90743709130681 11.816455281895967 5.117932708247394 0 0 0
600 3 23.660406181866385 8.6585278305948 6.005815505088701 0 0 0
606 3 24.436484379072137 9.340000982581785 2.338810855037094 0 0 0
616 3 24.90699978536409 11.816112497124728 2.56369161178396 0 0 0
466 2 25.26643274335589 11.238469650847524 6.135859619169882 0 0 0
601 3 26.45536355816535 10.797264939588095 3.436022931992257 0 0 0
603 3 27.252658886650217 10.483223335475236 4.407075007602197 0 0 0
730 1 28.833588727887857 10.953519207996782 4.184678272723071 0 0 0
852 3 28.915192965949995 8.692615044408205 4.569335969098903 0 0 0
858 3 28.173068810660787 10.809533082107029 3.484432403521689 0 0 0
869 3 29.127835406112215 10.261926194007835 4.497818146987503 0 0 0
622 3 26.87698213122812 10.808675877692387 5.448543440986828 0 0 0
790 2 29.781837643851116 10.161451397575254 4.775111396346892 0 0 0
868 3 31.866912261951008 9.4612640222389 3.484365900296352 0 0 0
748 1 32.64823350692092 9.431381304496451 4.927247966086735 0 0 0
853 3 32.103763209233946 8.878928589759399 3.547843116697971 0 0 0
855 3 30.643486551087413 9.72278079976632 5.283946155222619 0 0 0
874 3 29.79792540531388 11.749305990272182 4.454637441611668 0 0 0
906 3 34.10560219851632 10.388178094978857 6.177242851638519 0 0 0
912 3 33.504700910890705 8.517568334690448 62.984349061451006 0 0 -1
766 1 35.842356138135564 10.125478749673828 4.2192240470178755 0 0 0
808 2 35.36894319353701 11.272765099400177 6.4910477942240865 0 0 0
907 3 37.069599537219986 10.383443375353883 63.817929351511886 0 0 -1
909 3 36.469080870291734 9.938818552637787 3.6019204496302413 0 0 0
922 3 34.19709818881132 10.94005506166714 2.827628075337381 0 0 0
928 3 36.17781927430136 10.688788193897123 4.746734889164621 0 0 0
977 3 36.615108062936464 12.18566169204287 5.140192942596668 0 0 0
824 2 39.835207096530304 9.889199279537465 3.395302696009508 0 0 0
826 2 39.77043434959803 11.224464956944065 5.904327425960872 0 0 0
960 3 38.536672269016954 8.3880204761257 6.412698673260842 0 0 0
966 3 39.1143748246113 10.078225304992587 63.31078187879357 0 0 -1
976 3 39.13867321012026 11.379869501205444 3.127765329869684 0 0 0
982 3 38.991735028728556 10.761772266613825 5.5790527001274866 0 0 0
961 3 40.83348729568159 9.621382436505225 2.8363715603990074 0 0 0
963 3 41.06284694921457 8.725844986935362 3.773190336239399 0 0 0
1212 3 42.0182450456242 10.31076418719231 5.5775887229587156 0 0 0
1218 3 41.488035405219094 8.72260834400462 2.74693141144242 0 0 0
1090 1 41.59706734455602 11.319693758983004 3.7227284195774364 0 0 0
1150 2 42.71548073939503 10.738881847889727 5.878063806569228 0 0 0
1228 3 43.704326185341735 11.275491313462405 3.4706751969317207 0 0 0
1213 3 44.93575520236098 10.394336878464305 63.78501736079566 0 0 -1
1215 3 44.41052030872625 9.95805847782243 6.013656007929745 0 0 0
1108 1 44.89072454107542 9.517159590765957 4.72483680301604 0 0 0
1266 3 47.515651144338484 8.147934944315146 3.715559731258261 0 0 0
1272 3 45.89316466403109 8.57694550189191 4.04191364273938 0 0 0
1234 3 43.79372778974495 12.869615042123943 5.593696150517883 0 0 0
1288 3 48.18544028101001 12.66107012976364 4.760418060334628 0 0 0
1282 3 48.34965582823538 11.377302719146666 3.5807932412697645 0 0 0
1168 2 47.91757083498908 10.00745218157871 4.64726429647494 0 0 0
1267 3 49.517371688782276 9.906354028828744 2.368693382618823 0 0 0
1269 3 48.03295559857338 11.011271300434375 5.663557378737299 0 0 0
1126 1 49.736434460586864 11.51707727153059 3.1176819531706577 0 0 0
1342 3 52.06902263272733 11.029618106492457 5.088371516046782 0 0 0
1337 3 51.22192022856447 12.57425261629718 5.326417138663804 0 0 0
1320 3 52.344413712179886 9.614227786197517 5.004090359902565 0 0 0
1321 3 52.31413937215149 9.082557710368674 3.5649248843593377 0 0 0
1323 3 52.38019500101954 11.063012987702937 4.018294018815684 0 0 0
1326 3 51.835952460951276 8.842875866827633 2.609799271372825 0 0 0
1336 3 51.94301229534671 12.12102281046021 3.6474102998410514 0 0 0
1184 2 51.61969865640652 10.813310843467857 2.830883236707221 0 0 0
1186 2 50.98332906338453 10.657958862407511 5.369641786369499 0 0 0
24391 4 51.26844564415639 12.388762126278738 4.442466061438811 0 0 1
24394 4 52.17430678134941 9.821707655657928 4.978092823807291 0 0 1
1496 2 4.276821505629614 14.450776597369792 3.134558875860142 0 0 0
1498 2 4.451095749969854 14.86754460197378 6.413808070357182 0 0 0
1552 3 4.815975247424149 14.334450292474905 3.5167362255752987 0 0 0
13 1 3.2703126831452556 12.42662411007423 4.679715189760425 0 0 0
16 1 3.174571080424654 15.626593449214251 2.8621422258921574 0 0 0
145 3 2.095047556763174 12.227374767728437 2.983856185895625 0 0 0
150 3 3.851976358828698 13.030449867422204 4.4224384201968405 0 0 0
156 3 3.0814714530639646 12.281766579879182 63.37286504857675 0 0 -1
151 3 4.650261693299171 13.69491608229212 2.7797725684430517 0 0 0
1606 3 8.249547579422376 15.528156844945308 5.109869584517196 0 0 0
1514 2 9.023923447924819 15.122939850825563 2.555692049877864 0 0 0
1516 2 8.157648155200212 14.06408367661044 4.802654377723276 0 0 0
34 1 5.984622100718137 15.670272467224947 3.341992196216397 0 0 0
153 3 5.894441689885827 14.500334899598146 5.627322636608377 0 0 0
85 2 5.941606577403276 12.52722813096002 2.5147021501888958 0 0 0
87 2 5.567567225029029 12.055808569628892 4.694394150458362 0 0 0
199 3 5.535610692888767 12.24992641864751 4.958277038727045 0 0 0
204 3 6.663362945539848 13.396549444688192 3.9615286047351974 0 0 0
210 3 8.039214531040514 14.913312797777388 2.9398688993347957 0 0 0
31 1 9.693651239355138 13.334455193099963 3.599129997150313 0 0 0
1661 3 11.455260221328473 15.084336186027702 4.803047029339023 0 0 0
253 3 10.965963332830919 11.425074877133557 5.112554025740837 0 0 0
52 1 10.343948503363551 13.720159343492254 3.6525622477513116 0 0 0
105 2 9.682918046340824 12.894726124591884 4.66029348652757 0 0 0
205 3 9.872026966051614 14.545947498673922 2.580955024991201 0 0 0
207 3 9.987863847185183 15.34686819414232 4.946856952318117 0 0 0
258 3 11.969235666933201 12.344952801400325 3.8404911381632494 0 0 0
264 3 12.915534261222612 14.71805170115938 3.4614662016356337 0 0 0
1660 3 13.563473776864651 13.850976239495933 2.790874474818359 0 0 0
1534 2 12.58466884641803 15.425672536114412 5.41607957314387 0 0 0
259 3 15.269488614953739 13.472463658262502 2.598463753513735 0 0 0
261 3 13.638094793476405 13.236832593410455 6.169879369052773 0 0 0
49 1 12.686749296895007 13.068656893550038 3.0127303501264633 0 0 0
505 3 14.677622586828486 13.824518297611982 2.7369142734468537 0 0 0
427 2 15.319791675133002 13.120432029270589 3.0238365213499474 0 0 0
429 2 14.560000864399289 12.088961817640852 5.442810330588646 0 0 0
376 1 15.1360014778387 15.335759308676547 4.1738088991313225 0 0 0
1858 2 17.806074422710633 14.981192939752885 4.648532030231729 0 0 0
1912 3 17.522109617318726 14.369238835867467 3.9882322624400723 0 0 0
516 3 15.940819082145897 13.841155941870841 2.614730037078145 0 0 0
510 3 15.028237815809241 13.836464056474583 6.2965470288032 0 0 0
373 1 17.1941297184943 12.992382644891432 3.221979397848048 0 0 0
513 3 18.975575103662283 13.169904598142951 4.42372805320396 0 0 0
511 3 19.006353115432873 13.1513110757594 3.6975182616644346 0 0 0
445 2 18.351414504445206 12.551973854200362 2.3650619935190735 0 0 0
447 2 18.429928697705744 12.420483712387853 6.416974652233357 0 0 0
1966 3 23.152219601024356 14.517840578032304 4.313696469231771 0 0 0
1876 2 21.297235005765565 14.940801048345334 6.117396533828982 0 0 0
559 3 19.35311188892666 12.612316863138023 5.1036328258300285 0 0 0
564 3 20.01778717083521 12.940144605664194 4.845290154835253 0 0 0
570 3 19.619879507047276 13.18447215133666 3.5365723750054485 0 0 0
394 1 19.058932525862634 15.122909258315756 4.170447598526874 0 0 0
565 3 21.960382040552584 14.739542549932894 3.4316430865594927 0 0 0
391 1 21.084076192532873 12.892116568644436 4.2819708257053355 0 0 0
1894 2 25.026046682614112 14.3399822180655 5.01709035087105 0 0 0
567 3 23.05254758332679 15.129324329350899 5.885152362063769 0 0 0
412 1 22.712125853547974 15.199204992383384 3.5913695924837463 0 0 0
613 3 25.491720679223477 12.814936236585849 3.9645173907839353 0 0 0
463 2 23.075169666825726 11.86169919276161 3.1124360156021678 0 0 0
465 2 24.434402282275723 13.446054055504078 6.139560095723223 0 0 0
409 1 26.256964757154606 12.261420364113814 3.2358657428574453 0 0 0
618 3 25.61994287115801 13.08135404580325 4.47879587860141 0 0 0
624 3 24.685875592310285 13.990253979846415 63.674805061921354 0 0 -1
2020 3 27.52822226248815 15.692004896909909 3.684962481784581 0 0 0
619 3 27.259255059052403 14.68860705099668 3.5418880983642236 0 0 0
621 3 26.75615644745051 12.899366899253986 4.472374188039072 0 0 0
787 2 28.17500091226747 12.512857991120256 3.3247481565020127 0 0 0
789 2 27.169144104260337 12.54167746114668 5.210132606955724 0 0 0
736 1 27.58959621988386 14.420552334377732 4.2257598867083805 0 0 0
865 3 27.843951821409487 13.72289840158255 3.076997415800884 0 0 0
870 3 28.74358584337682 13.25391663913247 5.787840862649374 0 0 0
876 3 30.3797197418325 12.64507273921314 3.342826569953734 0 0 0
25488 4 29.1772910447101 14.836896297192872 4.483989611762971 0 0 1
2216 2 30.420234388967277 15.247629580280217 2.5441654733509687 0 0 0
2218 2 29.841962778741316 15.014016306131682 5.926601785643232 0 0 0
2272 3 29.71900902827107 14.047653503496258 4.472365015731596 0 0 0
733 1 30.58425667594426 12.861986534510375 3.093965123002468 0 0 0
754 1 31.8087773774261 15.05599813097026 3.6101728094023753 0 0 0
807 2 31.79002644291651 13.398121249978638 4.605378212682393 0 0 0
919 3 33.540657736419234 13.85336754243167 4.651665293667032 0 0 0
871 3 32.46608613229685 13.26954004797813 2.4613066241300605 0 0 0
873 3 32.784369831272144 14.164580621432599 4.965666017083075 0 0 0
2327 3 33.57943631588046 15.504216860712798 5.624872174363504 0 0 0
2234 2 34.37716460763967 15.76920875283211 2.646297648393168 0 0 0
2236 2 33.81253660935988 15.52313236579838 5.90026274063901 0 0 0
2326 3 34.66012695697484 16.274769358953684 4.6633639643594496 0 0 0
924 3 32.576583119973165 14.632784417661556 6.28854767714274 0 0 0
930 3 33.69422820538668 13.970641416622229 63.75341440145763 0 0 -1
751 1 35.01596635813354 12.38607745666467 4.9507035630752325 0 0 0
772 1 36.149285813368365 15.195956229134012 4.866780835478873 0 0 0
925 3 36.97407538773613 13.487485741470769 3.6915303793230083 0 0 0
927 3 36.15301210183105 13.724253420037792 4.041910030044252 0 0 0
2381 3 36.25269371199006 14.750807795658005 4.416541040300967 0 0 0
2252 2 39.53988885032268 15.87789546332633 2.415581932846458 0 0 0
2254 2 37.99693278163039 15.006271054042731 5.282174137097707 0 0 0
2380 3 39.96794136247836 13.996316589370734 4.372820448986912 0 0 0
823 2 37.40682463408723 12.90640240687884 3.240538227503198 0 0 0
825 2 36.92643439484849 12.203596271084132 4.332758472455299 0 0 0
973 3 37.65088445551645 12.89427707197332 5.1431865684454525 0 0 0
769 1 39.32372575967764 12.057086189739843 4.944294871227925 0 0 0
978 3 38.96327338872879 13.484953588704133 5.647455613707082 0 0 0
981 3 39.15482119046245 12.89182166976901 6.060463780194806 0 0 0
984 3 37.91236317882282 12.636091408495187 62.678625096560864 0 0 -1
1147 2 41.834922623257285 13.357170558207002 2.764494818236989 0 0 0
1149 2 40.36237638629672 12.267777436655244 4.867399046997222 0 0 0
2576 2 43.98649370471168 14.226355961846636 3.1568630985355433 0 0 0
2578 2 42.284653468080904 14.787512056594329 6.133599099519576 0 0 0
979 3 40.63047474933404 14.811211025541217 63.2894480141164 0 0 -1
1225 3 42.080513159647545 12.829585449552571 3.805205092753641 0 0 0
1230 3 42.78580555870506 13.741501866863569 5.2757307749189195 0 0 0
1236 3 41.68413577107588 13.31446641300683 63.2749294725149 0 0 -1
1093 1 42.99302628426713 13.880828344593779 3.627936830327769 0 0 0
1096 1 40.90710627265387 13.688721302129618 3.229707211163065 0 0 0
1284 3 45.74904626154913 14.019384104462338 5.496541365943511 0 0 0
1290 3 46.08982164927321 14.61370331182781 3.5511784398560526 0 0 0
1167 2 46.082287534737915 13.139233681850149 5.682973822052424 0 0 0