LAMMPS data file via write_data, version 2 Aug 2023, timestep = 600, units = metal

2880 atoms
4 atom types

1.497633057071159 26.52236694292883 xlo xhi
1.497633057071159 26.52236694292883 ylo yhi
1.4195979299004549 25.14040207009951 zlo zhi

Masses

1 24.305
2 28.0855
3 15.9994
4 4.002602

Atoms # atomic

1 1 2.900429124416516 3.528369111315539 24.522441413885893 0 0 -1
58 2 4.961019213400218 4.0712077239723286 3.879128626844256 0 0 0
113 3 2.6811401681112996 20.491505161238056 3.8002428171182316 0 -1 0
114 3 1.6312141419973276 11.15771887586757 2.5459039088398385 0 0 0
118 3 23.649678660834425 10.56274587738295 24.632821748328126 -1 0 -1
120 3 2.8542651111287896 9.87436127128927 3.037706697399228 0 0 0
117 3 3.8164139713324037 6.117663762064302 24.890588928820264 0 0 -1
754 1 5.297283897805961 1.7656064162652974 3.3839947138013597 0 1 0
1721 4 9.184899743977788 25.40968346171732 23.751187912306438 0 -1 0
73 2 6.365975949426217 4.580060678745774 3.3277950338291644 0 0 0
75 2 5.7605209068353265 25.51110725045533 6.117161088598384 0 -1 0
163 3 4.345412290148001 3.5182876779673125 23.96979189758018 0 0 -1
167 3 9.458177804974426 25.536945837126467 3.3848392545154242 0 -1 0
19 1 8.961839654187283 6.956054606190317 2.14691053712034 0 0 0
76 2 6.936977702927367 6.466428649366603 6.109865874496005 0 0 0
166 3 11.05550446181131 3.21748327408372 19.008317908272225 0 0 -1
172 3 10.962039150239791 26.493968830543704 2.5929608966036772 0 -1 0
217 3 7.423790927324244 25.18526248687653 24.918314034866732 0 -1 -1
80 2 6.725789124558348 5.967934024268391 24.99617871060637 0 0 -1
82 2 6.1344970250949915 8.092647905857259 3.7985001410639616 0 0 0
169 3 5.695169147084498 25.876276821291246 21.927737794508097 0 -1 -1
171 3 10.538592982117509 2.7401349640999415 24.16147808405471 0 0 -1
184 3 6.726762464013704 5.526234085593796 17.82697091848094 0 0 -1
772 1 8.00293223916157 26.312453198279094 22.919711956903985 0 0 -1
164 3 12.08468691957006 6.1499023885798785 8.967678585658229 0 0 0
1764 4 10.68556843070801 7.303764144351315 8.125963705544214 0 0 1
1724 4 12.271120370564136 9.06815631115051 6.556779321941887 0 0 1
2450 4 12.904826671106672 9.45113907283662 4.83501694367294 0 1 1
93 2 12.127455879459314 4.738872091309062 4.098225303992516 0 0 0
37 1 12.962778272310127 3.051935816995612 1.7920001131655219 0 0 0
94 2 9.68087059258792 4.165508862157504 8.256545343933674 0 0 0
220 3 9.21143362730167 25.208412088779752 24.45885788094914 0 -1 -1
222 3 14.660197366763919 26.465427636703488 4.066374877066172 0 -1 0
226 3 15.066987400368863 3.6407997005326482 5.914594367190743 0 0 0
228 3 15.936303979144705 6.79457142296398 23.742055236404767 0 0 -1
469 3 12.544434610029949 2.5833651311892876 24.710764082771366 0 0 -1
225 3 15.24714827915797 10.562932085083999 2.1609356885127347 0 0 0
364 1 13.007489703624675 2.5809423637149784 3.465988010950418 0 0 0
1756 4 16.443594833675252 6.873244074491055 1.731343374753049 0 0 1
1762 4 4.354179494149093 9.777728188827307 9.409868604638284 0 0 1
361 1 19.54816716161058 3.456720562196656 24.98316782008622 0 0 -1
415 2 15.631737813102564 3.3141336612962595 24.37290897267814 0 0 -1
417 2 15.902300060220032 8.917958254677584 6.406950189526399 0 0 0
418 2 19.821425183305138 23.254635794251243 7.93698654372966 0 -1 0
472 3 18.258457699068686 2.4197978089131458 5.1125954994017935 0 0 0
473 3 20.378766463323657 25.208931355522047 16.1784900415958 0 -1 -1
474 3 13.397187644500997 6.4052136212043616 23.683696672060655 0 0 -1
478 3 16.395860290274555 4.370983044915121 4.4920829965394145 0 0 0
480 3 14.437881993972521 7.048444006692707 2.95024147339531 0 0 0
433 2 19.760102475671918 4.702540142835163 23.74839800384612 0 0 -1
435 2 14.234991697460035 2.8553189652788324 2.914907831015504 0 0 0
223 3 15.287637467328231 5.897325735673629 1.8572661533074988 0 0 0
424 2 17.903432600153508 5.281151722649785 5.671699574352488 0 0 0
490 3 13.96908861613949 7.126682788476496 2.2520510649591 0 0 0
477 3 16.626193949416773 6.278459846088408 23.400795282675045 0 0 -1
471 3 16.013314582317413 6.629130705681775 23.813008411097783 0 0 -1
1226 3 19.832895295728893 4.164821335618697 10.829144980419912 0 1 0
2085 4 11.019171623794891 24.008461834421116 3.5959402705277026 0 -1 1
523 3 21.474377825166975 9.517161387806729 24.085607777363368 0 0 -1
527 3 15.667803240291938 5.201047197863927 4.654733959376877 0 0 0
528 3 19.113308997813945 6.509152548888473 23.345464405647302 0 0 -1
534 3 16.35010186904655 2.4218228097997745 21.92024666973405 0 0 -1
379 1 19.811067069365976 5.7350216117200326 2.3634185176657443 0 0 0
453 2 23.777440489285496 26.08989739289154 5.955285912476959 0 -1 0
526 3 23.11383009616555 5.967263328097554 5.685174609967752 0 0 0
532 3 21.384754595175092 2.773622568993307 23.98946189925964 0 0 -1
577 3 17.704339446288518 5.473698001357008 24.7687964029518 0 0 -1
382 1 20.219907376271223 3.0317678486229824 23.13559917403964 0 0 -1
442 2 21.995328819070583 3.9959855653139504 8.984051276478308 0 0 0
531 3 24.291235396071794 1.5150353458511854 3.4397416476594054 0 0 0
524 3 19.335259379992248 3.6591769858524223 6.684157620821206 0 0 0
1280 3 20.999926062268457 5.783893612755931 6.379716942699959 0 1 0
57 2 25.285570589865895 25.52806143842112 6.600850085141678 -1 -1 0
109 3 1.8678491051167285 22.946325281847557 23.928884400634185 0 -1 -1
451 2 23.713018772571232 1.8264826693441862 24.08515374317918 0 0 -1
581 3 25.75266865626047 26.20173041777127 2.6925754009236447 0 -1 0
397 1 2.7667098320392514 6.254099214883931 21.46582527340167 1 0 -1
454 2 24.503593352914095 5.2095124432479505 5.7858189817697525 0 0 0
580 3 25.692252743675862 3.621515604681871 4.146388015678504 0 0 0
582 3 26.30737144987952 2.031629603257231 24.934672843673596 0 0 -1
4 1 25.477842304195992 4.192891312607134 24.798683435516647 -1 0 -1
585 3 24.873009545417624 23.116352642785444 24.016301278839197 0 -1 -1
579 3 1.979585503901039 21.73879431205531 7.956274583968664 1 -1 0
1334 3 4.383872785403611 25.609758274126644 5.541600445171688 1 0 0
2086 4 24.14928541376805 23.712068370590906 8.577963724239638 0 -1 1
62 2 6.186819780337565 8.249600386272338 1.5299446131143137 0 0 0
64 2 6.170358483272098 7.609390943596204 4.229363322459671 0 0 0
130 3 24.319980796129848 7.229835522921216 2.6293080029739677 -1 0 0
131 3 2.4143101607773785 11.370870068653916 24.837172109634693 0 0 -1
7 1 4.931614920237988 4.628460578960631 18.63100586386611 0 0 -1
63 2 4.678531763434238 10.572936228568741 1.5540089341487864 0 0 0
70 2 25.9046872289108 6.942724635353407 7.675440187475177 -1 0 0
132 3 8.700526203092016 9.209526078293704 20.40090376644611 0 0 -1
138 3 1.6488645087213167 8.42250435297994 2.889992694521646 0 0 0
148 3 8.262412681282534 7.633749846095562 21.390984174505643 0 0 -1
81 2 5.817264551130886 9.339330341399595 6.895455881443119 0 0 0
133 3 23.061164273012192 7.873752798218982 24.576873787189328 -1 0 -1
135 3 24.04202935236685 6.7386264449229865 2.9295975164443213 -1 0 0
129 3 5.380113456189626 7.922996265763348 24.073529044221274 0 0 -1
22 1 9.352485329974177 7.094615744932484 4.930036425518139 0 0 0
181 3 5.746823806784214 6.602238950187746 10.767292442212415 0 0 0
40 1 9.546344997747433 8.688810110202613 2.768498055597286 0 0 0
190 3 3.9829821388501574 11.897657864854564 4.775773731785288 0 0 0
28 1 11.830754114523634 15.196453478022349 23.4840737449308 0 0 -1
186 3 9.089444548524849 8.489159374335523 20.434352576506736 0 0 -1
25 1 9.288853287930245 4.83543432603553 24.966485198960047 0 0 -1
88 2 9.340213871379506 10.74723856335292 7.276602189552853 0 0 0
99 2 9.622046862340188 10.582349914235916 24.406116060437622 0 0 -1
187 3 8.426584518261244 7.847469274678374 21.7953371358233 0 0 -1
189 3 3.9778136673540363 9.295283322120667 2.217002373012435 0 0 0
182 3 5.10911126117825 7.645340200853709 2.046871817015382 0 0 0
183 3 9.705510824079784 9.468921016271421 7.702149575379156 0 0 0
1720 4 10.282728390775375 2.507029000664198 2.140667867003712 0 0 1
1740 4 11.851721573115313 2.305843933513341 3.335870272522376 0 0 1
1742 4 26.0128001946026 8.75172286490957 3.4463549404416587 -1 0 1
1714 4 2.9448052450428888 26.135865902675 4.385737492179258 0 -1 1
235 3 17.375675211882445 8.783590314933413 24.545218345061905 0 0 -1
100 2 15.747561186463667 8.321671580727841 3.1444807568448514 0 0 0
238 3 9.814222731708002 3.754879051774294 22.1707848068986 0 0 -1
244 3 11.855490502665312 3.6611279292298247 24.333194955483606 0 0 -1
43 1 7.531118641694662 9.547424725542674 3.835069345156955 0 0 0
240 3 11.671441178988271 9.546956549646579 3.4642079779442794 0 0 0
246 3 9.158371889338046 5.81163052821993 24.163281934395933 0 0 -1
370 1 5.89129794999149 5.1366169903112215 3.2641354229176196 0 0 0
1718 4 12.48318640195164 14.66972931768948 6.174907210397306 0 0 1
1717 4 10.507532285306473 7.748051766877664 25.049661303601617 0 0 0
1747 4 10.074369066699022 8.54479281792758 8.831099696149565 0 0 1
1745 4 15.076718708560499 8.713201289722702 8.337057536351736 0 0 1
487 3 12.306471058595626 5.6769623984194055 1.4475410703551015 0 0 0
491 3 15.562561337715339 3.9363281018666156 1.553876666337468 0 0 0
496 3 13.586654680803642 3.410892376768819 23.977234262462293 0 0 -1
541 3 23.603046983610863 6.614187592422843 8.57830194169653 0 0 0
243 3 16.676074254623696 6.934276021126243 24.27978689780148 0 0 -1
367 1 21.794744835811905 4.514743760531464 21.89177722768747 0 0 -1
423 2 15.302991491603793 5.979235460706686 2.0862842820693155 0 0 0
430 2 18.24430421798693 6.787775704738701 4.0299015145811214 0 0 0
492 3 13.23597346743676 12.060297381497502 6.9519737792901335 0 0 0
498 3 14.57398114539621 7.288763111133361 25.039197976170946 0 0 -1
509 3 16.154000356771615 12.1776322941503 4.870391173422046 0 0 0
439 2 15.859839252351106 10.026453416345305 24.81466200913542 0 0 -1
493 3 15.858176738286287 7.955209131030372 25.13117070219023 0 0 -1
495 3 12.284963376911026 6.6657149861749305 1.9612522922523952 0 0 0
488 3 17.179931834942167 2.8404788804727072 24.46654038357324 0 0 -1
2079 4 11.925578456603992 24.110269723101226 7.241860467227143 0 -1 1
2082 4 16.786940167158505 12.332481545432222 9.377293508631158 0 0 1
2115 4 18.183475771501204 10.529867197121114 7.937043424023973 0 0 1
2106 4 12.094707727391041 12.045826683446995 8.400939463534424 0 0 1
545 3 23.70566413540858 2.5708065808364244 7.054378018972599 0 0 0
440 2 21.531130218311013 2.845498318293279 1.8988149561663894 0 0 0
544 3 18.376483031430954 3.526510502937708 22.029269966634526 0 0 -1
388 1 20.093566582398065 10.245984954800392 5.238980553316724 0 0 0
441 2 17.21827187775915 4.835247388341514 6.709115040275345 0 0 0
546 3 21.5344949038241 8.682646512535415 10.41356006413538 0 0 0
552 3 17.570572756953815 6.2476584924196255 23.067230721246897 0 0 -1
385 1 18.707785416522825 11.315720767886644 2.2561975104549354 0 0 0
446 2 19.560731741481856 7.980705539122192 3.0327979102062947 0 0 0
448 2 22.551852899050754 9.007338082397006 5.84783949147481 0 0 0
549 3 10.16914579375142 12.005148771838721 16.54337036361634 0 0 -1
562 3 21.087442359215167 8.457645758480183 22.64038105285406 0 0 -1
387 1 20.68436928964069 10.671216762490218 3.5398334710020025 0 0 0
2108 4 19.141605969210183 5.283640531820165 5.940814351613086 0 0 1
2105 4 20.057833617025967 14.184003035035015 11.715091486158027 0 0 1
127 3 2.0829535967866524 10.515026532737934 3.588844002256573 0 0 0
400 1 24.343152107306054 5.264803195539548 3.679701207852847 0 0 0
595 3 25.121768816187714 6.439884816889748 24.475709489780705 0 0 -1
599 3 22.502828716244903 6.703489779560474 23.632811452513074 0 0 -1
460 2 22.288978911850094 5.971009946224831 3.832052201405289 0 0 0
598 3 22.513307697595174 3.034142747433136 24.758957411694627 0 0 -1
604 3 1.5207947533117088 4.164398457926444 8.419538408187936 1 0 0
459 2 24.403016903880204 9.619237486541541 5.102002268401698 0 0 0
403 1 26.275189139616796 5.24194787669485 21.625949471797757 0 0 -1
600 3 23.274396743141846 6.959602259999054 4.905318044668874 0 0 0
601 3 19.2694662277967 10.304389673281431 21.85099322764623 0 0 -1
603 3 4.056045771698346 7.769872408112861 1.7626496518732944 1 0 0
410 1 2.9254014227247405 5.971945821795315 5.2648431523780115 1 0 0
597 3 24.722884628077622 7.978283192727091 3.824481406040221 0 0 0
2107 4 25.65765506360074 8.36403618332136 7.248878261300587 0 0 1
2110 4 2.772677578127584 15.012959107456375 8.94658776215296 1 0 1
2098 4 21.811581665152872 8.798082921059581 1.8464270000242746 0 0 1
10 1 25.868546246862085 14.095969770978135 2.1601232557726022 -1 0 0
68 2 4.686232002837089 14.396187598906218 2.490050603982349 0 0 0
149 3 4.324105456984787 7.200053399901388 24.21218146779649 0 0 -1
13 1 26.12843020282703 11.815942165297601 2.9423902139360965 -1 0 0
145 3 4.74250058915179 13.431925589354906 24.032611009081588 0 0 -1
150 3 24.428388953892256 11.056052538248608 2.4814066874331844 -1 0 0
154 3 2.8429430092859125 9.303745284574022 24.785973381865055 0 0 -1
85 2 7.479122023890391 8.959982151432953 23.427938394211463 0 0 -1
87 2 5.311302733839856 9.926447705662044 23.68136967307121 0 0 -1
151 3 5.3075592020258675 11.550054867159853 2.5807853244814893 0 0 0
153 3 3.2455336214556283 12.924002500863212 22.844952441636668 0 0 -1
199 3 2.4431724239809167 14.2421197949732 5.435018880820462 0 0 0
832 3 1.5577017842326923 12.471624959769457 1.482611637825877 0 0 0
1118 1 26.03422993027278 15.152900377426615 24.84167031986819 0 0 -1
1713 4 24.135517744436477 15.922454406829996 8.80830425815218 -1 0 1
46 1 7.878932946289549 13.019055943705965 4.48850387622796 0 0 0
86 2 6.700869632649316 11.964873888785887 3.0933272828680165 0 0 0
202 3 9.983845217403147 11.338547836360894 20.022443575732527 0 0 -1
204 3 4.282895119072201 14.656155970378089 18.929522223321626 0 0 -1
210 3 9.543105094119912 18.395918250877703 24.788277448943496 0 0 -1
31 1 8.154708334852906 11.376784351316052 4.010682519848121 0 0 0
52 1 8.139279863774577 9.909990729840137 2.26333584704211 0 0 0
105 2 6.184376933952294 10.003330008419862 3.3976988939632875 0 0 0
205 3 7.036350260008184 14.450364021536096 23.84394034720013 0 0 -1
208 3 3.5959734629943236 11.715702912331183 23.611860280947997 0 0 -1
796 2 6.658017562431156 12.099785380394083 6.72609619814274 0 0 0
33 1 8.530751708092165 11.921814687352457 3.538721083211963 0 0 0
1712 4 6.978925820215379 13.506390769958104 3.8584651115176705 0 0 1
106 2 13.718036033803655 9.178152236327335 4.287728562755668 0 0 0
256 3 14.668972134335922 10.602740044115942 2.2399744256218534 0 0 0
253 3 11.50566916318219 11.43502889895084 1.8482644331691251 0 0 0
49 1 9.369904959536672 12.336036080887926 2.3316359400421094 0 0 0
258 3 10.978407060529038 10.556896395273194 21.42761334362157 0 0 -1
261 3 14.815244318683703 11.072481659771816 5.43049234815465 0 0 0
262 3 16.703018772072667 4.608235088198782 24.38889087219 0 0 -1
264 3 20.32726591458706 21.871540947767645 4.427296630106124 0 0 0
429 2 15.151046963048296 8.431733858329187 4.027094511694668 0 0 0
505 3 11.781587568485069 14.380086274185727 19.346821701326085 0 0 -1
812 2 12.62777178048408 12.689810524397359 2.974531167142313 0 0 0
814 2 10.942457713261398 14.430726935067987 7.353873231984642 0 0 0
1711 4 11.72492341196754 9.812760772786245 4.117631771317631 0 0 1
428 2 13.089543605984264 12.726768433870408 21.894171822175476 0 0 -1
508 3 17.68909663644435 8.35346253685567 3.4578349339838925 0 0 0
259 3 15.068487759134632 12.16090750751031 20.986096071517128 0 0 -1
373 1 15.981890224071547 12.35600064711154 23.480492591666607 0 0 -1
427 2 13.347738965541742 14.480964814659806 6.16927519732701 0 0 0
510 3 13.368165507622777 7.209349329044493 13.390019493051005 0 0 0
516 3 20.045094309334164 17.303231479286115 20.939056295256425 0 0 -1
447 2 14.216203713884266 11.559655812254833 5.1741027701442075 0 0 0
511 3 16.237772040388172 13.699706520837834 4.7901110748371 0 0 0
513 3 10.045400842741008 16.479782133064077 7.481345953292217 0 0 0
1732 4 14.670005905001073 16.989591499229668 9.036913421288935 0 0 1
2073 4 19.607171267115053 6.766271410355799 4.313786949375189 0 0 1
563 3 20.39157313860848 13.297920343179477 9.902708775290824 0 0 0
559 3 17.923009764096854 11.892894522860397 23.49419174129109 0 0 -1
564 3 15.429769626764418 5.199373715713923 24.995842753066697 0 0 -1
570 3 22.709328407741264 13.602820944343145 16.689884385470094 0 0 -1
391 1 19.419760308547712 11.63252974949773 5.225194088601545 0 0 0
463 2 22.564094510961553 12.69441009994946 8.373303146857644 0 0 0
565 3 22.649346336928637 10.404257981233503 2.7418561369954295 0 0 0
568 3 24.055059844017688 17.136638229158958 2.0726802762249683 0 0 0
542 3 24.711356727612944 14.945420280335986 2.248953365371537 0 0 0
507 3 17.45761781845026 8.033282917267117 6.119514069244792 0 0 0
2094 4 21.7589801939765 14.661108035905889 2.149928196212758 0 0 1
2807 4 18.111934104139216 14.387995983475422 9.771242283649213 0 0 1
2804 4 24.47782821806894 17.90937518204839 24.437941132291805 0 0 0
2806 4 24.069577729672194 8.901424151112401 11.002448596987241 0 0 1
406 1 19.033113215767504 8.454148007924912 4.324358057452056 0 0 0
617 3 24.635742420364895 11.066077903735241 24.485994168795788 0 0 -1
466 2 21.095647819829356 11.640883985393456 6.202243185364826 0 0 0
616 3 20.361792900408783 13.820542139147227 22.310231398234674 0 0 -1
67 2 24.104239327769143 9.094465552537772 2.27065098695165 -1 0 0
69 2 25.366802838963395 10.140124974470035 6.485424318218759 -1 0 0
465 2 23.315266603637188 14.56886620340735 5.765256521573602 0 0 0
613 3 3.90919147828724 11.615939786296453 1.8641776459576789 1 0 0
409 1 2.713608196285758 10.090752222105829 21.670385666160275 1 0 -1
618 3 2.0010126039122995 14.79520815913242 4.95339492507169 1 0 0
619 3 1.5677013468659617 13.170655583727935 24.879278556610057 1 0 -1
621 3 3.280669261378698 8.888686712780904 24.811566738796596 1 0 -1
622 3 6.9216379861691335 13.340374129304253 24.46074030605282 1 0 -1
1174 2 20.666367663603534 12.572279491870452 2.825378452606178 0 0 0
16 1 2.278913985343607 17.108171628427712 24.085568866488188 0 0 -1
34 1 25.26406425313855 11.92907210949369 23.32798004475463 -1 0 -1
721 1 3.6719978870266297 17.15357386969716 4.334169411779331 0 0 0
777 2 3.450383348604971 19.376389583102082 8.811107967870342 0 0 0
778 2 2.2215471349103435 15.429506508924286 4.670687839080481 0 0 0
829 3 26.248122222403 16.502438694807488 6.178276800676613 -1 0 0
833 3 23.753377788302796 14.148236780907514 23.06514069312094 -1 0 -1
834 3 5.609940877604307 17.05668099662378 2.327360734645141 0 0 0
838 3 2.9820011548430205 13.535534198123266 10.396679736307034 0 0 0
840 3 5.6106840187017575 18.222002273650816 24.616403791130367 0 0 -1
850 3 24.331946009979696 17.78564160328326 22.804545860026444 -1 0 -1
835 3 2.7955064221039994 15.051775006273468 1.447801704877098 0 0 0
837 3 8.089607759594713 17.31112577980192 3.016949877933248 0 0 0
1299 3 24.885447096455053 14.97995881688582 4.730144879403449 0 0 0
2445 4 5.308738091940219 14.534002134723346 4.2639274567748 0 0 1
2448 4 7.392249331982172 22.0757307063246 10.39163409915995 0 0 1
2478 4 23.77451167180185 17.404908371179946 8.247981604487466 -1 0 1
2442 4 3.389195559772604 16.125965081717236 3.658334736229704 0 0 1
207 3 11.319640125273338 17.40168754235774 1.5808101289653544 0 0 0
795 2 7.130132786036141 18.83066078196273 8.851638139623955 0 0 0
883 3 8.75785970220806 16.080948106603028 22.72517796350012 0 0 -1
887 3 6.4899769629643265 11.966185176243581 4.82107581222721 0 0 0
888 3 7.478053994175258 17.481569141672775 24.031413409038294 0 0 -1
894 3 10.446553355138914 16.8893618782145 23.103304695239142 0 0 -1
739 1 9.461584995354784 15.340873562511407 23.088258791637536 0 0 -1
813 2 10.421098051399753 18.060246212503404 5.019199762598386 0 0 0
886 3 6.22326117207595 17.85461306111013 2.0027257990951397 0 0 0
892 3 9.701660340263782 20.229976795161434 24.667074328367416 0 0 -1
937 3 6.075843819275123 21.068023292020037 3.723815026183227 0 0 0
742 1 2.4620057889206537 20.626477544853458 1.89892746224342 0 0 0
891 3 6.3626991140931795 17.542635220333374 1.896921465632777 0 0 0
904 3 9.397576574640564 19.202039112823407 23.931324887559477 0 0 -1
741 1 9.10438945977289 12.748519891053167 4.951854780002831 0 0 0
2480 4 26.501968550046385 16.385142578231175 10.684275212188894 -1 0 1
2444 4 8.772926585519926 13.675497542430717 3.4836324093559794 0 0 1
2440 4 5.118294913235762 12.112138588436736 9.675630588490757 0 0 1
941 3 14.648357066660594 17.304151510106607 2.8081285902132165 0 0 0
757 1 9.992749581516687 18.3364452125909 23.20901618965689 0 0 -1
940 3 15.612908806707049 16.190071798754378 2.7358505526137034 0 0 0
942 3 14.70253474155145 21.394197793674827 12.357435057681723 0 0 -1
946 3 15.448518177054117 14.635989121003865 9.429713180998787 0 0 0
948 3 12.211894189517443 15.821943753131462 21.445291690646876 0 0 -1
1135 2 13.11817957415209 19.07101956622265 24.53969903288508 0 0 -1
1137 2 13.050681655672626 16.108817544891345 3.624504134724984 0 0 0
1189 3 10.534379584026848 11.669741999200358 20.208043490106856 0 0 -1
760 1 12.402349316833025 21.92082147853752 3.6557945187325758 0 0 0
945 3 8.138801552570712 18.608796277000714 10.454024444132136 0 0 0
958 3 6.31973635200885 18.966333724324155 22.298222692892296 0 0 -1
2476 4 15.400969241679983 15.614307612686687 4.569618456406986 0 0 1
2835 4 9.39918371154797 20.465705611455327 5.2341163261654255 0 0 1
376 1 13.97371024148127 11.502655160238522 23.637093623787433 0 0 -1
394 1 21.43319822564707 12.867273751333155 3.4373210439833404 0 0 0
1081 1 18.20312190839872 14.720491904927236 2.170999709046327 0 0 0
1138 2 14.660488850951552 16.8378922523816 4.152387251021954 0 0 0
1192 3 13.235733617665115 17.785827712510102 22.401200452235457 0 0 -1
1193 3 15.717904128507636 15.955353882914318 4.869330389111458 0 0 0
1194 3 14.124439477389084 13.902924192625083 2.4405114908018364 0 0 0
1200 3 14.658749122338781 15.675657023042097 3.242394005443259 0 0 0
1155 2 16.894669581295382 17.074608532617994 4.122013216441248 0 0 0
1210 3 20.045066394339447 15.581207062415643 19.90893924662787 0 0 -1
1191 3 15.119941266885307 12.796054946246139 6.564035098866092 0 0 0
1190 3 13.782018901209888 15.026491441766193 4.372827630506578 0 0 0
2091 4 20.732110130142452 14.905914810924319 6.103704443433096 0 0 1
2841 4 15.385738585558501 17.63979910513015 2.9790900032506373 0 0 1
412 1 17.812270504010243 13.802178414326308 24.325029232098064 0 0 -1
567 3 26.12115554991593 16.515178328904263 6.557145598348288 0 0 0
1153 2 19.48772342112534 11.134626131921177 22.866927012867144 0 0 -1
1243 3 14.226380684374107 16.34781250526871 1.6626894047484488 0 0 0
1247 3 19.19377348116725 14.260249618229341 6.50947353823516 0 0 0
1248 3 15.515235899429792 24.800319489639968 4.637596253900583 0 0 0
1254 3 22.615486996329626 17.357856953644074 19.398930697529277 0 0 -1
1099 1 17.97493963639501 16.722914419817748 25.005615078444052 0 0 -1
1156 2 19.637025177916982 16.052993399661645 5.059906741365262 0 0 0
1246 3 25.48090732269626 17.261968117613712 8.037476754058858 0 0 0
1252 3 21.72623179661713 14.174403167135699 2.2577803005404555 0 0 0
1301 3 24.835598705970828 14.025388088326585 9.945608720974809 0 0 0
1102 1 18.803302423446024 15.271501755856349 3.624472719411548 0 0 0
1251 3 24.438394118495022 12.022877167642877 20.364835227090612 0 0 -1
1264 3 18.23771563519692 19.815163531764163 6.524098592742571 0 0 0
560 3 21.662858990382958 14.816662239048389 5.584944964332575 0 0 0
1101 1 21.421466505571786 21.31248457764281 3.655724938967572 0 0 0
2801 4 13.826806760331865 13.146324749215365 2.2726130856682714 0 0 1
2832 4 24.06255318936472 19.205466279450743 3.1533972548380778 0 0 1
1173 2 26.45556074889763 17.095394026914647 5.336233463716335 0 0 0
1297 3 23.981023638165038 19.04695437143535 19.204027236566485 0 0 -1
1117 1 26.11770661558366 16.074429960966086 2.992436467326633 0 0 0
1172 2 24.23147889414517 16.234709720663417 2.290026896963978 0 0 0
1300 3 25.898096854896007 14.466783663864698 6.665572992453977 0 0 0
1302 3 21.971487176759503 12.509525463301912 22.717538549721265 0 0 -1
1306 3 21.055143305490436 14.113689214546044 4.525454500779007 0 0 0
1308 3 22.392985090646675 19.323849624988107 24.775077839114097 0 0 -1
724 1 24.51341114783419 18.05029272611957 2.640730247753959 -1 0 0
1180 2 24.710533515312285 18.648586729587393 8.424854286808507 0 0 0
1305 3 24.5608530524502 17.660841067674657 1.4618197176308063 0 0 0
784 2 4.534873420893836 20.015445334204212 4.606004334926313 0 0 0
847 3 26.316935744211797 19.62949596617992 2.478417063966228 -1 0 0
851 3 8.04758689667276 19.49529946804141 3.247013416528949 0 0 0
727 1 6.662847567486769 24.07874583404774 23.426911273338526 0 0 -1
783 2 2.5538422605370616 18.655269933063586 6.424977323131488 0 0 0
790 2 1.5384724962777816 21.583911594349285 3.9454594860976213 0 0 0
852 3 25.311058602927496 15.07546108318969 4.698846421676869 -1 0 0
858 3 24.32315447665514 24.959710600366364 24.596753680559992 -1 0 -1
868 3 4.554533803892571 15.884293194579316 24.74945578171926 0 0 -1
869 3 25.665641035849763 24.568753742534913 24.155408070026077 -1 0 -1
801 2 5.711071326215506 19.289156381103624 8.757910953876424 0 0 0
853 3 6.591144551234375 16.99612532000436 2.641750689073001 0 0 0
855 3 3.2332366812691893 26.497037185594735 4.1951498172966435 0 0 0
849 3 5.330143490523058 22.082886895903318 5.706744806542023 0 0 0
901 3 10.522167391565779 18.073064451556633 23.84629274052728 0 0 -1
802 2 7.354162100854453 18.32762116261011 6.533245796599375 0 0 0
889 3 8.80823395161184 19.556316747327113 3.3242807792095665 0 0 0
910 3 8.174376941031156 15.420509274679775 23.870528090998874 0 0 -1
748 1 6.388499460060261 18.597368483675 2.2704244603369337 0 0 0
906 3 7.123772477243949 19.965255362610524 2.324275078208807 0 0 0
745 1 6.607084748809205 24.32151720107443 22.08665267352789 0 0 -1
766 1 6.622965003931225 18.966609129292085 22.525985605072364 0 0 -1
909 3 7.771377149678042 15.981603434474254 24.961040687162875 0 0 -1
2465 4 16.471908698351015 21.263262168419388 8.40123767928597 0 0 1
955 3 10.885096346494988 13.008995513653847 24.72281742958087 0 0 -1
818 2 11.962669318019602 20.77865894826502 1.939069214551553 0 0 0
820 2 9.525745690080033 18.729530463277392 5.735004390491323 0 0 0
964 3 18.26367530405231 20.165672405034023 4.348467130592029 0 0 0
1084 1 10.911114246144729 21.22107901087404 5.76564720085014 0 0 0
819 2 13.069778492711514 21.289122710942614 2.567572528431895 0 0 0
763 1 12.617355474987642 22.772176753747342 25.086270127000198 0 0 -1
824 2 11.71344656480118 16.68548774150399 3.0591134269250597 0 0 0
960 3 11.828546806013222 25.349100954178535 7.385909789825016 0 0 0
961 3 18.895818151293376 23.081318970286894 2.6475169454536323 0 0 0
963 3 13.78183518545412 16.56895173319882 21.773970471357714 0 0 -1
1141 2 9.019396245909565 17.305566435018406 2.598792390146069 0 0 0
1143 2 10.578876410611525 18.881750314705226 4.328892910553398 0 0 0
770 1 12.603443069795423 21.77443989500599 25.047416371606566 0 0 -1
2471 4 10.475805679364045 21.19025588506348 1.8054199007553429 0 0 1
2470 4 12.42267791828483 23.031465896822354 13.110781564586855 0 0 1
2802 4 23.37757478499185 21.218536826661516 2.125557070060776 0 0 1
1144 2 16.755684065332964 20.126315342476595 6.234056652160273 0 0 0
1207 3 17.91684221836298 22.475562588540782 24.60088098642944 0 0 -1
1211 3 14.054418577035944 20.84489781085714 25.072114784563798 0 0 -1
1216 3 15.142814044907926 21.682619233780486 3.673619681307163 0 0 0
1195 3 14.225886450161623 19.183456287070257 6.100312357029002 0 0 0
1197 3 16.9046329035216 16.671548252256294 6.0064805105082915 0 0 0
1261 3 15.00630985948786 22.58275337209501 22.249303769123866 0 0 -1
1087 1 16.70659517842781 20.50222107369657 3.4481410781027724 0 0 0
1212 3 12.993188318388498 20.150453711876565 7.933379469509284 0 0 0
1218 3 12.604247553043484 20.464084456635366 19.084172452439102 0 0 -1
1108 1 11.968421312307674 20.332767854137998 23.369211306861285 0 0 -1
1161 2 21.30494497531221 22.045176304728855 5.530547016123778 0 0 0
1215 3 20.193384696414753 24.02460416298925 6.6191104699967065 0 0 0
2829 4 20.254442118242835 22.218374409678663 2.5498552320896763 0 0 1
1265 3 20.29653104274866 22.214492678630815 6.835223308553457 0 0 0
1120 1 20.69723410370452 18.821383243733717 4.081818676186495 0 0 0
1162 2 22.805559093640994 19.226727420183966 8.247297035310858 0 0 0
1270 3 23.933200174863547 14.3982747755555 6.202540052673973 0 0 0
1315 3 19.391134346885533 21.85796241777711 22.200953125974287 0 0 -1
1266 3 14.798124568422118 22.445648616038415 1.4327784228533391 0 0 0
1272 3 22.521395242112344 21.152794313911734 10.003822251421518 0 0 0
1283 3 20.530973814501543 21.73485562521885 2.494692503953038 0 0 0
1105 1 20.02267816462405 2.0598528356551027 2.921430595688612 0 1 0
1168 2 20.57812557893626 20.91031136713425 2.91680551718927 0 0 0
1177 2 22.507244329626197 20.737915938219146 4.071120789994862 0 0 0
1267 3 25.247394755026317 20.502187880949982 23.722513328662306 0 0 -1
1263 3 25.604808410716434 22.807916591343268 3.5475075492028783 0 0 0
1178 2 26.36984348519991 18.060013199596966 2.9013534905123652 0 0 0
1318 3 23.38056510647534 17.826407736518203 7.92981715303017 0 0 0
1324 3 20.663278418831315 21.459487259543994 2.753541104566639 0 0 0
1179 2 25.853233978589312 21.701332773361088 4.869802873375319 0 0 0
1123 1 20.818265114096686 21.623547009999985 22.409418773550346 0 0 -1
1320 3 24.841378163999085 25.240261757220548 24.90885706345647 0 0 -1
1321 3 17.21297420777568 19.092618797163542 6.12154181182718 0 0 0
1326 3 26.032105609522155 20.66920142069514 2.9432588873104395 0 0 0
1106 1 24.42397587232582 17.104438072306458 24.29940386078491 0 0 -1
1298 3 23.322217455704973 19.161448115607794 24.761860756810055 0 0 -1
2830 4 24.51222360212058 21.20178863319564 2.658413869625142 0 0 1
2794 4 2.3433322331979305 18.725110087835002 9.261243894325382 1 0 1
112 3 6.093164216991112 20.632449658185493 23.449188208355892 0 -1 -1
730 1 4.870777060234605 24.480065840858774 23.7084284756108 0 0 -1