# LAMMPS data file written by generate_selected_composition_structures.py  [tiled 2x2x2]

2880 atoms
4 atom types

0.000000 28.020000 xlo xhi
0.000000 28.020000 ylo yhi
0.000000 26.560000 zlo zhi

Masses

1 24.305000  # Mg
2 28.085500  # Si
3 15.999400  # O
4 4.002602  # He

Atoms  # atomic

1 1 2.400852 2.596515 1.660000
2 1 4.604148 0.261525 4.980000
3 1 2.269158 2.073480 4.980000
4 1 0.065847 4.408485 1.660000
5 1 2.400852 2.596515 8.300000
6 1 0.065847 4.408485 8.300000
7 1 2.400852 7.266525 1.660000
8 1 4.604148 4.931520 4.980000
9 1 2.269158 6.743475 4.980000
10 1 0.065847 9.078480 1.660000
11 1 2.400852 7.266525 8.300000
12 1 0.065847 9.078480 8.300000
13 1 2.400852 11.936520 1.660000
14 1 4.604148 9.601515 4.980000
15 1 2.269158 11.413485 4.980000
16 1 0.065847 13.748475 1.660000
17 1 2.400852 11.936520 8.300000
18 1 0.065847 13.748475 8.300000
19 1 7.070847 2.596515 1.660000
20 1 9.274158 0.261525 4.980000
21 1 6.939153 2.073480 4.980000
22 1 4.735842 4.408485 1.660000
23 1 7.070847 2.596515 8.300000
24 1 4.735842 4.408485 8.300000
25 1 7.070847 7.266525 1.660000
26 1 9.274158 4.931520 4.980000
27 1 6.939153 6.743475 4.980000
28 1 4.735842 9.078480 1.660000
29 1 7.070847 7.266525 8.300000
30 1 4.735842 9.078480 8.300000
31 1 7.070847 11.936520 1.660000
32 1 9.274158 9.601515 4.980000
33 1 6.939153 11.413485 4.980000
34 1 4.735842 13.748475 1.660000
35 1 7.070847 11.936520 8.300000
36 1 4.735842 13.748475 8.300000
37 1 11.740842 2.596515 1.660000
38 1 13.944153 0.261525 4.980000
39 1 11.609148 2.073480 4.980000
40 1 9.405852 4.408485 1.660000
41 1 11.740842 2.596515 8.300000
42 1 9.405852 4.408485 8.300000
43 1 11.740842 7.266525 1.660000
44 1 13.944153 4.931520 4.980000
45 1 11.609148 6.743475 4.980000
46 1 9.405852 9.078480 1.660000
47 1 11.740842 7.266525 8.300000
48 1 9.405852 9.078480 8.300000
49 1 11.740842 11.936520 1.660000
50 1 13.944153 9.601515 4.980000
51 1 11.609148 11.413485 4.980000
52 1 9.405852 13.748475 1.660000
53 1 11.740842 11.936520 8.300000
54 1 9.405852 13.748475 8.300000
55 2 0.000000 2.335005 0.000000
56 2 2.335005 0.000000 0.000000
57 2 0.000000 2.335005 3.320000
58 2 2.335005 0.000000 3.320000
59 2 0.000000 2.335005 6.640000
60 2 2.335005 0.000000 6.640000
61 2 0.000000 7.005000 0.000000
62 2 2.335005 4.669995 0.000000
63 2 0.000000 7.005000 3.320000
64 2 2.335005 4.669995 3.320000
65 2 0.000000 7.005000 6.640000
66 2 2.335005 4.669995 6.640000
67 2 0.000000 11.674995 0.000000
68 2 2.335005 9.340005 0.000000
69 2 0.000000 11.674995 3.320000
70 2 2.335005 9.340005 3.320000
71 2 0.000000 11.674995 6.640000
72 2 2.335005 9.340005 6.640000
73 2 4.669995 2.335005 0.000000
74 2 7.005000 0.000000 0.000000
75 2 4.669995 2.335005 3.320000
76 2 7.005000 0.000000 3.320000
77 2 4.669995 2.335005 6.640000
78 2 7.005000 0.000000 6.640000
79 2 4.669995 7.005000 0.000000
80 2 7.005000 4.669995 0.000000
81 2 4.669995 7.005000 3.320000
82 2 7.005000 4.669995 3.320000
83 2 4.669995 7.005000 6.640000
84 2 7.005000 4.669995 6.640000
85 2 4.669995 11.674995 0.000000
86 2 7.005000 9.340005 0.000000
87 2 4.669995 11.674995 3.320000
88 2 7.005000 9.340005 3.320000
89 2 4.669995 11.674995 6.640000
90 2 7.005000 9.340005 6.640000
91 2 9.340005 2.335005 0.000000
92 2 11.674995 0.000000 0.000000
93 2 9.340005 2.335005 3.320000
94 2 11.674995 0.000000 3.320000
95 2 9.340005 2.335005 6.640000
96 2 11.674995 0.000000 6.640000
97 2 9.340005 7.005000 0.000000
98 2 11.674995 4.669995 0.000000
99 2 9.340005 7.005000 3.320000
100 2 11.674995 4.669995 3.320000
101 2 9.340005 7.005000 6.640000
102 2 11.674995 4.669995 6.640000
103 2 9.340005 11.674995 0.000000
104 2 11.674995 9.340005 0.000000
105 2 9.340005 11.674995 3.320000
106 2 11.674995 9.340005 3.320000
107 2 9.340005 11.674995 6.640000
108 2 11.674995 9.340005 6.640000
109 3 0.473538 2.176215 1.660000
110 3 1.861467 4.511220 4.980000
111 3 4.196457 2.493780 4.980000
112 3 2.808543 0.158775 1.660000
113 3 0.915792 0.940533 3.673248
114 3 1.419213 3.275538 2.966752
115 3 3.754218 3.729462 0.353248
116 3 3.250782 1.394457 6.286752
117 3 3.754218 3.729462 2.966752
118 3 3.250782 1.394457 3.673248
119 3 0.915792 0.940533 6.286752
120 3 1.419213 3.275538 0.353248
121 3 0.473538 2.176215 8.300000
122 3 2.808543 0.158775 8.300000
123 3 1.419213 3.275538 9.606752
124 3 3.754218 3.729462 6.993248
125 3 3.754218 3.729462 9.606752
126 3 1.419213 3.275538 6.993248
127 3 0.473538 6.846225 1.660000
128 3 1.861467 9.181215 4.980000
129 3 4.196457 7.163775 4.980000
130 3 2.808543 4.828785 1.660000
131 3 0.915792 5.610543 3.673248
132 3 1.419213 7.945533 2.966752
133 3 3.754218 8.399457 0.353248
134 3 3.250782 6.064467 6.286752
135 3 3.754218 8.399457 2.966752
136 3 3.250782 6.064467 3.673248
137 3 0.915792 5.610543 6.286752
138 3 1.419213 7.945533 0.353248
139 3 0.473538 6.846225 8.300000
140 3 2.808543 4.828785 8.300000
141 3 1.419213 7.945533 9.606752
142 3 3.754218 8.399457 6.993248
143 3 3.754218 8.399457 9.606752
144 3 1.419213 7.945533 6.993248
145 3 0.473538 11.516220 1.660000
146 3 1.861467 13.851225 4.980000
147 3 4.196457 11.833785 4.980000
148 3 2.808543 9.498780 1.660000
149 3 0.915792 10.280538 3.673248
150 3 1.419213 12.615543 2.966752
151 3 3.754218 13.069467 0.353248
152 3 3.250782 10.734462 6.286752
153 3 3.754218 13.069467 2.966752
154 3 3.250782 10.734462 3.673248
155 3 0.915792 10.280538 6.286752
156 3 1.419213 12.615543 0.353248
157 3 0.473538 11.516220 8.300000
158 3 2.808543 9.498780 8.300000
159 3 1.419213 12.615543 9.606752
160 3 3.754218 13.069467 6.993248
161 3 3.754218 13.069467 9.606752
162 3 1.419213 12.615543 6.993248
163 3 5.143533 2.176215 1.660000
164 3 6.531462 4.511220 4.980000
165 3 8.866467 2.493780 4.980000
166 3 7.478538 0.158775 1.660000
167 3 5.585787 0.940533 3.673248
168 3 6.089208 3.275538 2.966752
169 3 8.424213 3.729462 0.353248
170 3 7.920792 1.394457 6.286752
171 3 8.424213 3.729462 2.966752
172 3 7.920792 1.394457 3.673248
173 3 5.585787 0.940533 6.286752
174 3 6.089208 3.275538 0.353248
175 3 5.143533 2.176215 8.300000
176 3 7.478538 0.158775 8.300000
177 3 6.089208 3.275538 9.606752
178 3 8.424213 3.729462 6.993248
179 3 8.424213 3.729462 9.606752
180 3 6.089208 3.275538 6.993248
181 3 5.143533 6.846225 1.660000
182 3 6.531462 9.181215 4.980000
183 3 8.866467 7.163775 4.980000
184 3 7.478538 4.828785 1.660000
185 3 5.585787 5.610543 3.673248
186 3 6.089208 7.945533 2.966752
187 3 8.424213 8.399457 0.353248
188 3 7.920792 6.064467 6.286752
189 3 8.424213 8.399457 2.966752
190 3 7.920792 6.064467 3.673248
191 3 5.585787 5.610543 6.286752
192 3 6.089208 7.945533 0.353248
193 3 5.143533 6.846225 8.300000
194 3 7.478538 4.828785 8.300000
195 3 6.089208 7.945533 9.606752
196 3 8.424213 8.399457 6.993248
197 3 8.424213 8.399457 9.606752
198 3 6.089208 7.945533 6.993248
199 3 5.143533 11.516220 1.660000
200 3 6.531462 13.851225 4.980000
201 3 8.866467 11.833785 4.980000
202 3 7.478538 9.498780 1.660000
203 3 5.585787 10.280538 3.673248
204 3 6.089208 12.615543 2.966752
205 3 8.424213 13.069467 0.353248
206 3 7.920792 10.734462 6.286752
207 3 8.424213 13.069467 2.966752
208 3 7.920792 10.734462 3.673248
209 3 5.585787 10.280538 6.286752
210 3 6.089208 12.615543 0.353248
211 3 5.143533 11.516220 8.300000
212 3 7.478538 9.498780 8.300000
213 3 6.089208 12.615543 9.606752
214 3 8.424213 13.069467 6.993248
215 3 8.424213 13.069467 9.606752
216 3 6.089208 12.615543 6.993248
217 3 9.813543 2.176215 1.660000
218 3 11.201457 4.511220 4.980000
219 3 13.536462 2.493780 4.980000
220 3 12.148533 0.158775 1.660000
221 3 10.255782 0.940533 3.673248
222 3 10.759218 3.275538 2.966752
223 3 13.094208 3.729462 0.353248
224 3 12.590787 1.394457 6.286752
225 3 13.094208 3.729462 2.966752
226 3 12.590787 1.394457 3.673248
227 3 10.255782 0.940533 6.286752
228 3 10.759218 3.275538 0.353248
229 3 9.813543 2.176215 8.300000
230 3 12.148533 0.158775 8.300000
231 3 10.759218 3.275538 9.606752
232 3 13.094208 3.729462 6.993248
233 3 13.094208 3.729462 9.606752
234 3 10.759218 3.275538 6.993248
235 3 9.813543 6.846225 1.660000
236 3 11.201457 9.181215 4.980000
237 3 13.536462 7.163775 4.980000
238 3 12.148533 4.828785 1.660000
239 3 10.255782 5.610543 3.673248
240 3 10.759218 7.945533 2.966752
241 3 13.094208 8.399457 0.353248
242 3 12.590787 6.064467 6.286752
243 3 13.094208 8.399457 2.966752
244 3 12.590787 6.064467 3.673248
245 3 10.255782 5.610543 6.286752
246 3 10.759218 7.945533 0.353248
247 3 9.813543 6.846225 8.300000
248 3 12.148533 4.828785 8.300000
249 3 10.759218 7.945533 9.606752
250 3 13.094208 8.399457 6.993248
251 3 13.094208 8.399457 9.606752
252 3 10.759218 7.945533 6.993248
253 3 9.813543 11.516220 1.660000
254 3 11.201457 13.851225 4.980000
255 3 13.536462 11.833785 4.980000
256 3 12.148533 9.498780 1.660000
257 3 10.255782 10.280538 3.673248
258 3 10.759218 12.615543 2.966752
259 3 13.094208 13.069467 0.353248
260 3 12.590787 10.734462 6.286752
261 3 13.094208 13.069467 2.966752
262 3 12.590787 10.734462 3.673248
263 3 10.255782 10.280538 6.286752
264 3 10.759218 12.615543 0.353248
265 3 9.813543 11.516220 8.300000
266 3 12.148533 9.498780 8.300000
267 3 10.759218 12.615543 9.606752
268 3 13.094208 13.069467 6.993248
269 3 13.094208 13.069467 9.606752
270 3 10.759218 12.615543 6.993248
271 4 12.590787 10.734462 12.926752
272 4 7.920792 10.734462 12.926752
273 4 3.250782 10.734462 12.926752
274 4 10.255782 10.280538 12.926752
275 4 5.585787 10.280538 12.926752
276 4 0.915792 10.280538 12.926752
277 4 12.590787 6.064467 12.926752
278 4 7.920792 6.064467 12.926752
279 4 3.250782 6.064467 12.926752
280 4 10.255782 5.610543 12.926752
281 4 5.585787 5.610543 12.926752
282 4 0.915792 5.610543 12.926752
283 4 12.590787 1.394457 12.926752
284 4 7.920792 1.394457 12.926752
285 4 3.250782 1.394457 12.926752
286 4 10.255782 0.940533 12.926752
287 4 5.585787 0.940533 12.926752
288 4 0.915792 0.940533 12.926752
289 4 11.201457 13.851225 11.620000
290 4 6.531462 13.851225 11.620000
291 4 1.861467 13.851225 11.620000
292 4 13.536462 11.833785 11.620000
293 4 8.866467 11.833785 11.620000
294 4 4.196457 11.833785 11.620000
295 4 11.609148 11.413485 11.620000
296 4 6.939153 11.413485 11.620000
297 4 2.269158 11.413485 11.620000
298 4 13.944153 9.601515 11.620000
299 4 9.274158 9.601515 11.620000
300 4 4.604148 9.601515 11.620000
301 4 11.201457 9.181215 11.620000
302 4 6.531462 9.181215 11.620000
303 4 1.861467 9.181215 11.620000
304 4 13.536462 7.163775 11.620000
305 4 8.866467 7.163775 11.620000
306 4 4.196457 7.163775 11.620000
307 4 11.609148 6.743475 11.620000
308 4 6.939153 6.743475 11.620000
309 4 2.269158 6.743475 11.620000
310 4 13.944153 4.931520 11.620000
311 4 9.274158 4.931520 11.620000
312 4 4.604148 4.931520 11.620000
313 4 11.201457 4.511220 11.620000
314 4 6.531462 4.511220 11.620000
315 4 1.861467 4.511220 11.620000
316 4 13.536462 2.493780 11.620000
317 4 8.866467 2.493780 11.620000
318 4 4.196457 2.493780 11.620000
319 4 11.609148 2.073480 11.620000
320 4 6.939153 2.073480 11.620000
321 4 2.269158 2.073480 11.620000
322 4 13.944153 0.261525 11.620000
323 4 9.274158 0.261525 11.620000
324 4 4.604148 0.261525 11.620000
325 4 12.590787 10.734462 10.313248
326 4 7.920792 10.734462 10.313248
327 4 3.250782 10.734462 10.313248
328 4 10.255782 10.280538 10.313248
329 4 5.585787 10.280538 10.313248
330 4 0.915792 10.280538 10.313248
331 4 12.590787 6.064467 10.313248
332 4 7.920792 6.064467 10.313248
333 4 3.250782 6.064467 10.313248
334 4 10.255782 5.610543 10.313248
335 4 5.585787 5.610543 10.313248
336 4 0.915792 5.610543 10.313248
337 4 12.590787 1.394457 10.313248
338 4 7.920792 1.394457 10.313248
339 4 3.250782 1.394457 10.313248
340 4 10.255782 0.940533 10.313248
341 4 5.585787 0.940533 10.313248
342 4 0.915792 0.940533 10.313248
343 4 9.340005 11.674995 9.960000
344 4 4.669995 11.674995 9.960000
345 4 0.000000 11.674995 9.960000
346 4 11.674995 9.340005 9.960000
347 4 7.005000 9.340005 9.960000
348 4 2.335005 9.340005 9.960000
349 4 9.340005 7.005000 9.960000
350 4 4.669995 7.005000 9.960000
351 4 0.000000 7.005000 9.960000
352 4 11.674995 4.669995 9.960000
353 4 7.005000 4.669995 9.960000
354 4 2.335005 4.669995 9.960000
355 4 9.340005 2.335005 9.960000
356 4 4.669995 2.335005 9.960000
357 4 0.000000 2.335005 9.960000
358 4 11.674995 0.000000 9.960000
359 4 7.005000 0.000000 9.960000
360 4 2.335005 0.000000 9.960000
361 1 16.410852 2.596515 1.660000
362 1 18.614148 0.261525 4.980000
363 1 16.279158 2.073480 4.980000
364 1 14.075847 4.408485 1.660000
365 1 16.410852 2.596515 8.300000
366 1 14.075847 4.408485 8.300000
367 1 16.410852 7.266525 1.660000
368 1 18.614148 4.931520 4.980000
369 1 16.279158 6.743475 4.980000
370 1 14.075847 9.078480 1.660000
371 1 16.410852 7.266525 8.300000
372 1 14.075847 9.078480 8.300000
373 1 16.410852 11.936520 1.660000
374 1 18.614148 9.601515 4.980000
375 1 16.279158 11.413485 4.980000
376 1 14.075847 13.748475 1.660000
377 1 16.410852 11.936520 8.300000
378 1 14.075847 13.748475 8.300000
379 1 21.080847 2.596515 1.660000
380 1 23.284158 0.261525 4.980000
381 1 20.949153 2.073480 4.980000
382 1 18.745842 4.408485 1.660000
383 1 21.080847 2.596515 8.300000
384 1 18.745842 4.408485 8.300000
385 1 21.080847 7.266525 1.660000
386 1 23.284158 4.931520 4.980000
387 1 20.949153 6.743475 4.980000
388 1 18.745842 9.078480 1.660000
389 1 21.080847 7.266525 8.300000
390 1 18.745842 9.078480 8.300000
391 1 21.080847 11.936520 1.660000
392 1 23.284158 9.601515 4.980000
393 1 20.949153 11.413485 4.980000
394 1 18.745842 13.748475 1.660000
395 1 21.080847 11.936520 8.300000
396 1 18.745842 13.748475 8.300000
397 1 25.750842 2.596515 1.660000
398 1 27.954153 0.261525 4.980000
399 1 25.619148 2.073480 4.980000
400 1 23.415852 4.408485 1.660000
401 1 25.750842 2.596515 8.300000
402 1 23.415852 4.408485 8.300000
403 1 25.750842 7.266525 1.660000
404 1 27.954153 4.931520 4.980000
405 1 25.619148 6.743475 4.980000
406 1 23.415852 9.078480 1.660000
407 1 25.750842 7.266525 8.300000
408 1 23.415852 9.078480 8.300000
409 1 25.750842 11.936520 1.660000
410 1 27.954153 9.601515 4.980000
411 1 25.619148 11.413485 4.980000
412 1 23.415852 13.748475 1.660000
413 1 25.750842 11.936520 8.300000
414 1 23.415852 13.748475 8.300000
415 2 14.010000 2.335005 0.000000
416 2 16.345005 0.000000 0.000000
417 2 14.010000 2.335005 3.320000
418 2 16.345005 0.000000 3.320000
419 2 14.010000 2.335005 6.640000
420 2 16.345005 0.000000 6.640000
421 2 14.010000 7.005000 0.000000
422 2 16.345005 4.669995 0.000000
423 2 14.010000 7.005000 3.320000
424 2 16.345005 4.669995 3.320000
425 2 14.010000 7.005000 6.640000
426 2 16.345005 4.669995 6.640000
427 2 14.010000 11.674995 0.000000
428 2 16.345005 9.340005 0.000000
429 2 14.010000 11.674995 3.320000
430 2 16.345005 9.340005 3.320000
431 2 14.010000 11.674995 6.640000
432 2 16.345005 9.340005 6.640000
433 2 18.679995 2.335005 0.000000
434 2 21.015000 0.000000 0.000000
435 2 18.679995 2.335005 3.320000
436 2 21.015000 0.000000 3.320000
437 2 18.679995 2.335005 6.640000
438 2 21.015000 0.000000 6.640000
439 2 18.679995 7.005000 0.000000
440 2 21.015000 4.669995 0.000000
441 2 18.679995 7.005000 3.320000
442 2 21.015000 4.669995 3.320000
443 2 18.679995 7.005000 6.640000
444 2 21.015000 4.669995 6.640000
445 2 18.679995 11.674995 0.000000
446 2 21.015000 9.340005 0.000000
447 2 18.679995 11.674995 3.320000
448 2 21.015000 9.340005 3.320000
449 2 18.679995 11.674995 6.640000
450 2 21.015000 9.340005 6.640000
451 2 23.350005 2.335005 0.000000
452 2 25.684995 0.000000 0.000000
453 2 23.350005 2.335005 3.320000
454 2 25.684995 0.000000 3.320000
455 2 23.350005 2.335005 6.640000
456 2 25.684995 0.000000 6.640000
457 2 23.350005 7.005000 0.000000
458 2 25.684995 4.669995 0.000000
459 2 23.350005 7.005000 3.320000
460 2 25.684995 4.669995 3.320000
461 2 23.350005 7.005000 6.640000
462 2 25.684995 4.669995 6.640000
463 2 23.350005 11.674995 0.000000
464 2 25.684995 9.340005 0.000000
465 2 23.350005 11.674995 3.320000
466 2 25.684995 9.340005 3.320000
467 2 23.350005 11.674995 6.640000
468 2 25.684995 9.340005 6.640000
469 3 14.483538 2.176215 1.660000
470 3 15.871467 4.511220 4.980000
471 3 18.206457 2.493780 4.980000
472 3 16.818543 0.158775 1.660000
473 3 14.925792 0.940533 3.673248
474 3 15.429213 3.275538 2.966752
475 3 17.764218 3.729462 0.353248
476 3 17.260782 1.394457 6.286752
477 3 17.764218 3.729462 2.966752
478 3 17.260782 1.394457 3.673248
479 3 14.925792 0.940533 6.286752
480 3 15.429213 3.275538 0.353248
481 3 14.483538 2.176215 8.300000
482 3 16.818543 0.158775 8.300000
483 3 15.429213 3.275538 9.606752
484 3 17.764218 3.729462 6.993248
485 3 17.764218 3.729462 9.606752
486 3 15.429213 3.275538 6.993248
487 3 14.483538 6.846225 1.660000
488 3 15.871467 9.181215 4.980000
489 3 18.206457 7.163775 4.980000
490 3 16.818543 4.828785 1.660000
491 3 14.925792 5.610543 3.673248
492 3 15.429213 7.945533 2.966752
493 3 17.764218 8.399457 0.353248
494 3 17.260782 6.064467 6.286752
495 3 17.764218 8.399457 2.966752
496 3 17.260782 6.064467 3.673248
497 3 14.925792 5.610543 6.286752
498 3 15.429213 7.945533 0.353248
499 3 14.483538 6.846225 8.300000
500 3 16.818543 4.828785 8.300000
501 3 15.429213 7.945533 9.606752
502 3 17.764218 8.399457 6.993248
503 3 17.764218 8.399457 9.606752
504 3 15.429213 7.945533 6.993248
505 3 14.483538 11.516220 1.660000
506 3 15.871467 13.851225 4.980000
507 3 18.206457 11.833785 4.980000
508 3 16.818543 9.498780 1.660000
509 3 14.925792 10.280538 3.673248
510 3 15.429213 12.615543 2.966752
511 3 17.764218 13.069467 0.353248
512 3 17.260782 10.734462 6.286752
513 3 17.764218 13.069467 2.966752
514 3 17.260782 10.734462 3.673248
515 3 14.925792 10.280538 6.286752
516 3 15.429213 12.615543 0.353248
517 3 14.483538 11.516220 8.300000
518 3 16.818543 9.498780 8.300000
519 3 15.429213 12.615543 9.606752
520 3 17.764218 13.069467 6.993248
521 3 17.764218 13.069467 9.606752
522 3 15.429213 12.615543 6.993248
523 3 19.153533 2.176215 1.660000
524 3 20.541462 4.511220 4.980000
525 3 22.876467 2.493780 4.980000
526 3 21.488538 0.158775 1.660000
527 3 19.595787 0.940533 3.673248
528 3 20.099208 3.275538 2.966752
529 3 22.434213 3.729462 0.353248
530 3 21.930792 1.394457 6.286752
531 3 22.434213 3.729462 2.966752
532 3 21.930792 1.394457 3.673248
533 3 19.595787 0.940533 6.286752
534 3 20.099208 3.275538 0.353248
535 3 19.153533 2.176215 8.300000
536 3 21.488538 0.158775 8.300000
537 3 20.099208 3.275538 9.606752
538 3 22.434213 3.729462 6.993248
539 3 22.434213 3.729462 9.606752
540 3 20.099208 3.275538 6.993248
541 3 19.153533 6.846225 1.660000
542 3 20.541462 9.181215 4.980000
543 3 22.876467 7.163775 4.980000
544 3 21.488538 4.828785 1.660000
545 3 19.595787 5.610543 3.673248
546 3 20.099208 7.945533 2.966752
547 3 22.434213 8.399457 0.353248
548 3 21.930792 6.064467 6.286752
549 3 22.434213 8.399457 2.966752
550 3 21.930792 6.064467 3.673248
551 3 19.595787 5.610543 6.286752
552 3 20.099208 7.945533 0.353248
553 3 19.153533 6.846225 8.300000
554 3 21.488538 4.828785 8.300000
555 3 20.099208 7.945533 9.606752
556 3 22.434213 8.399457 6.993248
557 3 22.434213 8.399457 9.606752
558 3 20.099208 7.945533 6.993248
559 3 19.153533 11.516220 1.660000
560 3 20.541462 13.851225 4.980000
561 3 22.876467 11.833785 4.980000
562 3 21.488538 9.498780 1.660000
563 3 19.595787 10.280538 3.673248
564 3 20.099208 12.615543 2.966752
565 3 22.434213 13.069467 0.353248
566 3 21.930792 10.734462 6.286752
567 3 22.434213 13.069467 2.966752
568 3 21.930792 10.734462 3.673248
569 3 19.595787 10.280538 6.286752
570 3 20.099208 12.615543 0.353248
571 3 19.153533 11.516220 8.300000
572 3 21.488538 9.498780 8.300000
573 3 20.099208 12.615543 9.606752
574 3 22.434213 13.069467 6.993248
575 3 22.434213 13.069467 9.606752
576 3 20.099208 12.615543 6.993248
577 3 23.823543 2.176215 1.660000
578 3 25.211457 4.511220 4.980000
579 3 27.546462 2.493780 4.980000
580 3 26.158533 0.158775 1.660000
581 3 24.265782 0.940533 3.673248
582 3 24.769218 3.275538 2.966752
583 3 27.104208 3.729462 0.353248
584 3 26.600787 1.394457 6.286752
585 3 27.104208 3.729462 2.966752
586 3 26.600787 1.394457 3.673248
587 3 24.265782 0.940533 6.286752
588 3 24.769218 3.275538 0.353248
589 3 23.823543 2.176215 8.300000
590 3 26.158533 0.158775 8.300000
591 3 24.769218 3.275538 9.606752
592 3 27.104208 3.729462 6.993248
593 3 27.104208 3.729462 9.606752
594 3 24.769218 3.275538 6.993248
595 3 23.823543 6.846225 1.660000
596 3 25.211457 9.181215 4.980000
597 3 27.546462 7.163775 4.980000
598 3 26.158533 4.828785 1.660000
599 3 24.265782 5.610543 3.673248
600 3 24.769218 7.945533 2.966752
601 3 27.104208 8.399457 0.353248
602 3 26.600787 6.064467 6.286752
603 3 27.104208 8.399457 2.966752
604 3 26.600787 6.064467 3.673248
605 3 24.265782 5.610543 6.286752
606 3 24.769218 7.945533 0.353248
607 3 23.823543 6.846225 8.300000
608 3 26.158533 4.828785 8.300000
609 3 24.769218 7.945533 9.606752
610 3 27.104208 8.399457 6.993248
611 3 27.104208 8.399457 9.606752
612 3 24.769218 7.945533 6.993248
613 3 23.823543 11.516220 1.660000
614 3 25.211457 13.851225 4.980000
615 3 27.546462 11.833785 4.980000
616 3 26.158533 9.498780 1.660000
617 3 24.265782 10.280538 3.673248
618 3 24.769218 12.615543 2.966752
619 3 27.104208 13.069467 0.353248
620 3 26.600787 10.734462 6.286752
621 3 27.104208 13.069467 2.966752
622 3 26.600787 10.734462 3.673248
623 3 24.265782 10.280538 6.286752
624 3 24.769218 12.615543 0.353248
625 3 23.823543 11.516220 8.300000
626 3 26.158533 9.498780 8.300000
627 3 24.769218 12.615543 9.606752
628 3 27.104208 13.069467 6.993248
629 3 27.104208 13.069467 9.606752
630 3 24.769218 12.615543 6.993248
631 4 26.600787 10.734462 12.926752
632 4 21.930792 10.734462 12.926752
633 4 17.260782 10.734462 12.926752
634 4 24.265782 10.280538 12.926752
635 4 19.595787 10.280538 12.926752
636 4 14.925792 10.280538 12.926752
637 4 26.600787 6.064467 12.926752
638 4 21.930792 6.064467 12.926752
639 4 17.260782 6.064467 12.926752
640 4 24.265782 5.610543 12.926752
641 4 19.595787 5.610543 12.926752
642 4 14.925792 5.610543 12.926752
643 4 26.600787 1.394457 12.926752
644 4 21.930792 1.394457 12.926752
645 4 17.260782 1.394457 12.926752
646 4 24.265782 0.940533 12.926752
647 4 19.595787 0.940533 12.926752
648 4 14.925792 0.940533 12.926752
649 4 25.211457 13.851225 11.620000
650 4 20.541462 13.851225 11.620000
651 4 15.871467 13.851225 11.620000
652 4 27.546462 11.833785 11.620000
653 4 22.876467 11.833785 11.620000
654 4 18.206457 11.833785 11.620000
655 4 25.619148 11.413485 11.620000
656 4 20.949153 11.413485 11.620000
657 4 16.279158 11.413485 11.620000
658 4 27.954153 9.601515 11.620000
659 4 23.284158 9.601515 11.620000
660 4 18.614148 9.601515 11.620000
661 4 25.211457 9.181215 11.620000
662 4 20.541462 9.181215 11.620000
663 4 15.871467 9.181215 11.620000
664 4 27.546462 7.163775 11.620000
665 4 22.876467 7.163775 11.620000
666 4 18.206457 7.163775 11.620000
667 4 25.619148 6.743475 11.620000
668 4 20.949153 6.743475 11.620000
669 4 16.279158 6.743475 11.620000
670 4 27.954153 4.931520 11.620000
671 4 23.284158 4.931520 11.620000
672 4 18.614148 4.931520 11.620000
673 4 25.211457 4.511220 11.620000
674 4 20.541462 4.511220 11.620000
675 4 15.871467 4.511220 11.620000
676 4 27.546462 2.493780 11.620000
677 4 22.876467 2.493780 11.620000
678 4 18.206457 2.493780 11.620000
679 4 25.619148 2.073480 11.620000
680 4 20.949153 2.073480 11.620000
681 4 16.279158 2.073480 11.620000
682 4 27.954153 0.261525 11.620000
683 4 23.284158 0.261525 11.620000
684 4 18.614148 0.261525 11.620000
685 4 26.600787 10.734462 10.313248
686 4 21.930792 10.734462 10.313248
687 4 17.260782 10.734462 10.313248
688 4 24.265782 10.280538 10.313248
689 4 19.595787 10.280538 10.313248
690 4 14.925792 10.280538 10.313248
691 4 26.600787 6.064467 10.313248
692 4 21.930792 6.064467 10.313248
693 4 17.260782 6.064467 10.313248
694 4 24.265782 5.610543 10.313248
695 4 19.595787 5.610543 10.313248
696 4 14.925792 5.610543 10.313248
697 4 26.600787 1.394457 10.313248
698 4 21.930792 1.394457 10.313248
699 4 17.260782 1.394457 10.313248
700 4 24.265782 0.940533 10.313248
701 4 19.595787 0.940533 10.313248
702 4 14.925792 0.940533 10.313248
703 4 23.350005 11.674995 9.960000
704 4 18.679995 11.674995 9.960000
705 4 14.010000 11.674995 9.960000
706 4 25.684995 9.340005 9.960000
707 4 21.015000 9.340005 9.960000
708 4 16.345005 9.340005 9.960000
709 4 23.350005 7.005000 9.960000
710 4 18.679995 7.005000 9.960000
711 4 14.010000 7.005000 9.960000
712 4 25.684995 4.669995 9.960000
713 4 21.015000 4.669995 9.960000
714 4 16.345005 4.669995 9.960000
715 4 23.350005 2.335005 9.960000
716 4 18.679995 2.335005 9.960000
717 4 14.010000 2.335005 9.960000
718 4 25.684995 0.000000 9.960000
719 4 21.015000 0.000000 9.960000
720 4 16.345005 0.000000 9.960000
721 1 2.400852 16.606515 1.660000
722 1 4.604148 14.271525 4.980000
723 1 2.269158 16.083480 4.980000
724 1 0.065847 18.418485 1.660000
725 1 2.400852 16.606515 8.300000
726 1 0.065847 18.418485 8.300000
727 1 2.400852 21.276525 1.660000
728 1 4.604148 18.941520 4.980000
729 1 2.269158 20.753475 4.980000
730 1 0.065847 23.088480 1.660000
731 1 2.400852 21.276525 8.300000
732 1 0.065847 23.088480 8.300000
733 1 2.400852 25.946520 1.660000
734 1 4.604148 23.611515 4.980000
735 1 2.269158 25.423485 4.980000
736 1 0.065847 27.758475 1.660000
737 1 2.400852 25.946520 8.300000
738 1 0.065847 27.758475 8.300000
739 1 7.070847 16.606515 1.660000
740 1 9.274158 14.271525 4.980000
741 1 6.939153 16.083480 4.980000
742 1 4.735842 18.418485 1.660000
743 1 7.070847 16.606515 8.300000
744 1 4.735842 18.418485 8.300000
745 1 7.070847 21.276525 1.660000
746 1 9.274158 18.941520 4.980000
747 1 6.939153 20.753475 4.980000
748 1 4.735842 23.088480 1.660000
749 1 7.070847 21.276525 8.300000
750 1 4.735842 23.088480 8.300000
751 1 7.070847 25.946520 1.660000
752 1 9.274158 23.611515 4.980000
753 1 6.939153 25.423485 4.980000
754 1 4.735842 27.758475 1.660000
755 1 7.070847 25.946520 8.300000
756 1 4.735842 27.758475 8.300000
757 1 11.740842 16.606515 1.660000
758 1 13.944153 14.271525 4.980000
759 1 11.609148 16.083480 4.980000
760 1 9.405852 18.418485 1.660000
761 1 11.740842 16.606515 8.300000
762 1 9.405852 18.418485 8.300000
763 1 11.740842 21.276525 1.660000
764 1 13.944153 18.941520 4.980000
765 1 11.609148 20.753475 4.980000
766 1 9.405852 23.088480 1.660000
767 1 11.740842 21.276525 8.300000
768 1 9.405852 23.088480 8.300000
769 1 11.740842 25.946520 1.660000
770 1 13.944153 23.611515 4.980000
771 1 11.609148 25.423485 4.980000
772 1 9.405852 27.758475 1.660000
773 1 11.740842 25.946520 8.300000
774 1 9.405852 27.758475 8.300000
775 2 0.000000 16.345005 0.000000
776 2 2.335005 14.010000 0.000000
777 2 0.000000 16.345005 3.320000
778 2 2.335005 14.010000 3.320000
779 2 0.000000 16.345005 6.640000
780 2 2.335005 14.010000 6.640000
781 2 0.000000 21.015000 0.000000
782 2 2.335005 18.679995 0.000000
783 2 0.000000 21.015000 3.320000
784 2 2.335005 18.679995 3.320000
785 2 0.000000 21.015000 6.640000
786 2 2.335005 18.679995 6.640000
787 2 0.000000 25.684995 0.000000
788 2 2.335005 23.350005 0.000000
789 2 0.000000 25.684995 3.320000
790 2 2.335005 23.350005 3.320000
791 2 0.000000 25.684995 6.640000
792 2 2.335005 23.350005 6.640000
793 2 4.669995 16.345005 0.000000
794 2 7.005000 14.010000 0.000000
795 2 4.669995 16.345005 3.320000
796 2 7.005000 14.010000 3.320000
797 2 4.669995 16.345005 6.640000
798 2 7.005000 14.010000 6.640000
799 2 4.669995 21.015000 0.000000
800 2 7.005000 18.679995 0.000000
801 2 4.669995 21.015000 3.320000
802 2 7.005000 18.679995 3.320000
803 2 4.669995 21.015000 6.640000
804 2 7.005000 18.679995 6.640000
805 2 4.669995 25.684995 0.000000
806 2 7.005000 23.350005 0.000000
807 2 4.669995 25.684995 3.320000
808 2 7.005000 23.350005 3.320000
809 2 4.669995 25.684995 6.640000
810 2 7.005000 23.350005 6.640000
811 2 9.340005 16.345005 0.000000
812 2 11.674995 14.010000 0.000000
813 2 9.340005 16.345005 3.320000
814 2 11.674995 14.010000 3.320000
815 2 9.340005 16.345005 6.640000
816 2 11.674995 14.010000 6.640000
817 2 9.340005 21.015000 0.000000
818 2 11.674995 18.679995 0.000000
819 2 9.340005 21.015000 3.320000
820 2 11.674995 18.679995 3.320000
821 2 9.340005 21.015000 6.640000
822 2 11.674995 18.679995 6.640000
823 2 9.340005 25.684995 0.000000
824 2 11.674995 23.350005 0.000000
825 2 9.340005 25.684995 3.320000
826 2 11.674995 23.350005 3.320000
827 2 9.340005 25.684995 6.640000
828 2 11.674995 23.350005 6.640000
829 3 0.473538 16.186215 1.660000
830 3 1.861467 18.521220 4.980000
831 3 4.196457 16.503780 4.980000
832 3 2.808543 14.168775 1.660000
833 3 0.915792 14.950533 3.673248
834 3 1.419213 17.285538 2.966752
835 3 3.754218 17.739462 0.353248
836 3 3.250782 15.404457 6.286752
837 3 3.754218 17.739462 2.966752
838 3 3.250782 15.404457 3.673248
839 3 0.915792 14.950533 6.286752
840 3 1.419213 17.285538 0.353248
841 3 0.473538 16.186215 8.300000
842 3 2.808543 14.168775 8.300000
843 3 1.419213 17.285538 9.606752
844 3 3.754218 17.739462 6.993248
845 3 3.754218 17.739462 9.606752
846 3 1.419213 17.285538 6.993248
847 3 0.473538 20.856225 1.660000
848 3 1.861467 23.191215 4.980000
849 3 4.196457 21.173775 4.980000
850 3 2.808543 18.838785 1.660000
851 3 0.915792 19.620543 3.673248
852 3 1.419213 21.955533 2.966752
853 3 3.754218 22.409457 0.353248
854 3 3.250782 20.074467 6.286752
855 3 3.754218 22.409457 2.966752
856 3 3.250782 20.074467 3.673248
857 3 0.915792 19.620543 6.286752
858 3 1.419213 21.955533 0.353248
859 3 0.473538 20.856225 8.300000
860 3 2.808543 18.838785 8.300000
861 3 1.419213 21.955533 9.606752
862 3 3.754218 22.409457 6.993248
863 3 3.754218 22.409457 9.606752
864 3 1.419213 21.955533 6.993248
865 3 0.473538 25.526220 1.660000
866 3 1.861467 27.861225 4.980000
867 3 4.196457 25.843785 4.980000
868 3 2.808543 23.508780 1.660000
869 3 0.915792 24.290538 3.673248
870 3 1.419213 26.625543 2.966752
871 3 3.754218 27.079467 0.353248
872 3 3.250782 24.744462 6.286752
873 3 3.754218 27.079467 2.966752
874 3 3.250782 24.744462 3.673248