LAMMPS data file via write_data, version 2 Aug 2023, timestep = 5200, units = metal

360 atoms
4 atom types

0.5243958598392888 13.485604140160778 xlo xhi
0.5243958598392888 13.485604140160778 ylo yhi
0.4970718785627941 12.782928121437124 zlo zhi

Masses

1 24.305
2 28.0855
3 15.9994
4 4.002602

Atoms # atomic/kk

243 3 2.546105096207692 2.138231132285041 1.2856990918890505 1 2 0
146 3 5.287201242160831 3.8521725633424038 5.59374125346904 -1 1 1
16 1 2.2280060024203214 1.0060306194398845 4.291466088137721 0 1 0
224 3 3.5639149003336485 2.481982632107642 12.715502495280887 0 -1 0
200 3 1.880297029541607 1.4821512433236763 11.200479592115876 1 -1 -1
74 2 13.248278036242763 0.960454749722273 2.439243564105541 -2 1 -2
5 1 5.600285678838718 12.39533816707938 11.066393520127935 1 -1 0
27 1 4.933016620229879 4.195861914802843 2.1973211535849413 1 1 0
52 1 4.839197951199724 3.46062992493912 0.5161432460813065 1 1 0
281 4 4.5475549489431035 4.996361848826264 12.660635174027083 2 1 -1
324 4 2.743323823694265 1.7605456560790098 4.244449842065274 -2 -1 0
31 1 3.984855998367088 12.422811914861821 1.5202947628336316 1 0 0
88 2 4.103952667410946 4.0355914655026535 4.809934057259277 1 0 1
114 3 9.847982265392545 2.9649217358493116 1.0266543337930716 -1 1 -3
62 2 5.1011995106566514 3.2952243049504957 1.0486758954417115 0 0 0
260 3 9.414249318501547 12.865674246419953 1.9502950382007707 0 -1 1
82 2 8.975476572920435 3.397335042299915 3.440003839008981 0 0 1
235 3 6.483400354101591 12.258523307451199 1.1909769038868805 0 0 -1
232 3 5.3262393033134545 6.265020504576092 2.806496120520811 0 0 0
357 4 6.7422337287013825 2.6740392100872303 3.5299119594727886 0 -2 2
1 1 8.417328701300072 12.91160442774731 4.248452777728717 0 -1 1
309 4 10.303142351996712 3.5128582935372954 3.3896693820920176 -1 0 0
63 2 8.474994645651282 3.1092602426315907 0.6096036160635167 0 1 0
341 4 5.905129690189882 1.077678658387511 2.051244292303626 0 2 1
270 3 4.4809743927186965 2.551654750807306 0.5068550000562241 1 2 0
65 2 8.119371081633407 11.984613804680993 2.5378226748276864 0 -2 0
22 1 5.307758204321001 2.1716349218763993 1.637019713356455 1 0 0
323 4 9.364845600346747 1.3635998727982395 7.667028941279747 -2 1 0
314 4 4.364232652745896 0.9167088149224312 0.9785803655469159 0 1 -1
129 3 8.71413681999308 11.974461545238789 12.682491212796014 0 -2 -1
262 3 6.7194522278638456 2.3348741137760642 3.247021949823477 1 1 -1
94 2 4.507588295191685 4.4314577034527645 1.3825487406028043 0 0 -1
113 3 7.165332470334836 3.166995975236912 3.8411969036674956 0 0 0
274 4 1.779852538612539 6.781328065247808 2.5190134493970917 -1 2 -1
30 1 8.130833048091219 1.3448646972143519 10.91802506995524 0 1 0
317 4 12.224596735418697 2.2313990347463863 2.6259229358473735 3 1 -1
303 4 5.786541606185662 2.2340803562070537 4.925851190838968 -1 -1 0
164 3 9.241317568829668 11.85977103672564 1.6701350371040284 0 -1 1
179 3 0.5641958482072806 2.5293472305268776 4.643282718183963 1 1 2
111 3 9.860866943187332 2.282027106662169 3.993401688696628 0 0 1
220 3 9.831914626685798 2.9230056116989864 12.664856467576703 1 0 -1
269 3 13.247454298858383 2.144102893787956 3.8284886500175968 -2 0 0
177 3 11.235142928385894 8.030265133986282 5.77331348328142 0 0 0
194 3 10.43296766059622 12.267013869727702 2.0556019877358094 0 -1 0
172 3 10.248174754375675 6.712808465492797 1.401537121723743 0 0 0
157 3 0.8298428286523698 3.9838164368643687 1.8251638491898146 0 0 0
70 2 11.832582527146794 3.4683984761123066 4.3909544576615085 1 0 1
61 2 10.477100584796311 2.8732594790736643 1.2823092939218235 -1 0 0
34 1 10.157769410521087 13.455132425628172 2.0506276067414237 -1 0 0
92 2 11.172628121631067 3.759376796107944 4.052358711138588 -1 1 1
83 2 9.607428555737595 2.4283499331151925 11.28446966513086 0 0 0
73 2 11.325291670945646 13.192832173759378 1.083827456689584 0 -1 0
80 2 10.72434035477243 4.228667094641235 2.4528365518575352 1 1 1
125 3 10.117356379853668 1.7307143879433473 3.725665259698305 -1 0 0
49 1 8.118964236490548 5.307821626812943 5.744780592779801 0 1 0
50 1 1.2197786981811407 0.8825896950254954 12.429731577435883 2 0 1
122 3 3.9400310210541476 7.7234998846449745 4.651002401073779 -1 -2 1
320 4 0.9899619727562341 9.708365843568746 6.702601219207495 -2 -1 0
280 4 2.1687508027794453 4.636297135566954 5.694173320494062 -1 -2 -4
37 1 13.35572859131883 6.9322529694754 4.707785183094012 0 0 1
354 4 12.716544472053975 5.758679099945676 5.088711780762765 -7 0 -2
287 4 0.7577469138320793 11.95727900428394 5.219782973871317 -1 2 2
233 3 5.063818075082151 7.6334203633046025 1.3927566469102153 1 -1 1
327 4 7.775764329012729 9.67521284656533 4.511056308084789 2 5 0
209 3 0.9454789442830185 4.712357938380197 2.4038911833217353 0 0 -1
135 3 2.851210118718501 5.3517452818605245 0.858121253188975 -1 0 -1
197 3 6.727370852746573 9.512492445439936 4.930589095955583 -1 -2 -1
330 4 5.052267745607952 5.832473917301501 3.1096004666087023 -2 1 -2
23 1 9.198391956662416 5.871273663006429 4.262396802686688 0 0 1
218 3 4.725965552582446 8.230238696772734 1.9966267708082028 0 1 -1
54 1 4.502243380280335 6.790249023139645 4.143620408233271 0 1 1
342 4 8.53460636351727 10.123968098084852 4.134841787267894 -1 0 1
170 3 7.346535867108957 6.458051573120558 3.5689981113160325 0 0 1
134 3 4.843523343964851 4.957867006669466 0.6468239750452679 0 -1 0
128 3 8.141130838596485 5.9696302232436365 12.541305365805297 -1 0 -2
211 3 10.876014188011517 7.6781102807419055 0.9655811471477586 0 0 1
69 2 6.591521784188601 5.088223009350285 0.7421198743450441 0 0 0
198 3 6.010954103518098 7.247721106181918 0.562329267697453 0 0 1
206 3 4.690067758636426 8.487761793053856 3.2588621531581436 1 1 1
29 1 7.983358283255616 5.6446703958391735 3.0870966463660854 1 0 1
247 3 10.947146993817501 9.446825421736989 12.652431220109055 -1 0 -2
161 3 9.978801643061882 4.365701190923441 1.7976775455743486 0 0 1
279 4 12.953973966378516 3.608008151294488 2.690768959483433 -8 -1 0
275 4 5.38757970136556 2.3364653478963606 1.8672158394605805 -1 0 0
237 3 10.06847117686527 7.133565880697224 3.3601317598230747 0 1 1
57 2 13.1601995965638 6.462623510154168 3.736294463951397 0 -1 1
39 1 9.55870437013807 9.050344006272883 4.762657714685164 1 0 1
24 1 9.013926006512804 7.662523106949592 2.0783892873446095 0 0 1
145 3 10.869463254900548 7.661500745308156 3.5470640406649694 0 0 -1
337 4 12.61812176573838 1.7776181503643684 4.889917013515079 0 6 -1
201 3 10.00940031740226 6.2641155392739645 9.974848444840404 0 0 -1
264 3 12.504052314056146 8.05225821868773 3.9064367436195195 0 0 -1
257 3 13.186936179692026 5.539938635460646 0.6413909560958675 1 0 1
51 1 0.7438841644403026 8.53793175740045 11.493363653072674 0 1 0
48 1 12.605482033563483 2.848712186015611 2.2521693875268003 0 1 1
84 2 13.043103474252014 11.241659596034722 12.675504436072096 0 -1 0
326 4 5.20404311103833 12.194943650757093 5.250935595179716 0 1 -1
110 3 12.630462624091287 12.109625929300211 3.8379386964965834 -1 -1 0
75 2 12.85652793916466 10.285959511368425 5.175657658440831 0 -1 1
283 4 1.1441286591376036 10.034220299380753 5.149351506347503 -2 -1 -2
313 4 2.72332525020518 7.399558315991658 4.446277475744922 0 0 0
338 4 3.1314779102412214 8.819551521857782 2.6753611740885463 -3 0 -13
285 4 12.600740003603462 11.967265211413313 4.3360474979535955 0 1 0
93 2 2.0878530678257974 11.95078750277403 4.060825089270336 1 0 0
267 3 4.529688253366361 10.844446040262017 1.5889573982398204 2 -1 0
104 2 3.9085231645853593 12.22735670472111 3.0302715815647883 0 0 0
147 3 0.9902694357243429 0.607727211285185 1.866785979667096 1 2 -1
307 4 11.231181964548107 12.581641961097368 2.326488759506509 0 -1 1
340 4 6.813341503671923 3.6037967405743903 10.405001126079345 0 4 -8
148 3 1.481557332735042 10.725036039293826 2.4881518212379463 0 0 0
212 3 2.3656794273643102 11.999193390892149 11.863514247806322 1 1 -1
241 3 12.79185080569657 11.317687549166681 2.2398979629868774 0 0 0
252 3 4.737227635830671 13.40904407820948 0.8091196925440866 0 0 0
190 3 6.436907226639365 10.796952002714924 3.5943637082588626 0 0 0
154 3 11.950763173605079 0.9537611702447575 12.711938755474373 -1 1 -2
143 3 2.443642255875264 9.821897352153353 1.9884871770575765 0 0 1
151 3 6.20034720262728 9.055087459526163 2.9822416309118545 0 -2 -2
152 3 2.8815096176215054 8.954192951615699 1.5900349808489038 0 0 0
67 2 5.346156898806466 9.827180870806533 3.1684124385096424 -1 -1 0
15 1 8.668500349010053 11.017745506906781 2.9968718898900337 0 0 1
299 4 12.578553638467696 11.437633141413514 9.915111561401508 0 -3 -8
325 4 9.91050551544885 2.2162075728761144 1.4824665070260978 -2 2 0
352 4 7.251432484134501 5.263572022176211 6.820580988786558 2 4 2
96 2 7.445582782121536 9.834769867501464 2.7328488582220642 1 -1 0
163 3 7.539657116542883 9.589030576206067 6.225243611421465 0 -1 -1
174 3 5.558887272637645 0.6683963257670773 2.0871935118132305 1 0 -1
339 4 0.9631909005743726 6.756048536195772 6.526489392174344 -7 -4 -6
204 3 8.813736387688738 12.229908354081442 2.928440144277985 -1 -1 -1
210 3 9.320772038590388 13.001238161471075 4.950431585870565 -1 1 -1
349 4 11.787324109480451 6.394066013390087 12.460937880689848 -1 -1 0
351 4 1.5541016482501473 2.504418461692402 9.101391512853699 -2 1 -1
98 2 12.37333582234129 11.789166960709796 3.542055154735921 0 0 0
66 2 10.647707163796433 10.949614855394522 12.77947197141408 -1 0 -1
127 3 12.87013847685197 11.169160523385553 3.3277568469922723 -1 -3 -2
155 3 10.024623489463416 9.861308123397759 1.9723257256403273 -1 0 0
112 3 8.888136320852485 0.5756126245678844 3.2836478211671296 -1 0 0
130 3 10.976039830017147 10.089982800202844 2.7123069972439002 -1 0 0
8 1 2.8401797204610904 2.353175364441767 4.243537138331764 1 0 0
117 3 4.942007776920846 13.365384161085235 4.687428304795353 1 -2 -1
162 3 4.594084039469357 10.30744102366241 5.3074259711236875 -1 -3 -1
227 3 4.3691015446107855 3.7735360966850005 6.694330993677316 0 0 0
126 3 5.4437862570223405 3.458056095025203 7.782310563389356 0 1 0
86 2 2.8870929402426926 4.28091978971097 8.48618974591605 2 0 0
286 4 2.666952763954226 4.517732498616962 5.838922272136084 1 2 0
72 2 5.654759390384803 4.197531066398968 8.34588299233863 1 0 1
33 1 1.9737805719812747 1.3394895315176696 7.018104244161878 1 1 0
45 1 4.305194471790353 1.9268298114948448 5.138206627730678 0 1 -1
217 3 4.746212080756429 5.322284327035849 7.4519600641000485 0 -1 -2
216 3 7.899446200605006 13.295547030402538 6.988447836570169 1 -1 0
185 3 2.7609483411090103 2.2812867292126744 10.223858452438058 -2 0 0
236 3 6.2543002983769425 1.2722746719352056 8.016950059815064 1 1 -2
291 4 1.6140334902028897 1.758258015559935 6.386254512328722 -4 2 -2
253 3 9.798438412638632 2.1500875262496337 6.753458148542757 2 0 -1
336 4 8.180259908268326 5.107510218668876 5.079895718998217 -1 0 -1
97 2 5.795779697476691 1.0493145492511995 7.873661740150928 0 0 0
81 2 8.105313388321559 1.5650170946983584 8.555886821916225 1 1 1
150 3 7.905836774801622 2.251786366605896 8.0878576137635 -1 1 -2
219 3 9.246467939579158 2.22980269425038 10.016569690360958 0 0 0
46 1 9.484266309625585 2.7534059567746665 3.7892544351913875 -1 2 -1
6 1 5.798136807008206 4.437568146255044 4.911676310419917 -1 0 1
25 1 11.609748031474101 3.1990584306286465 6.08824090533179 -1 0 -1
234 3 0.8189001920509971 4.217718097365527 5.081529521108193 0 -1 0
263 3 10.202410620469845 4.544039959917439 5.439852847690508 0 1 0
13 1 10.243236667898643 2.2745163281128153 7.149692610827069 -1 1 0
183 3 0.6901334083608611 2.724034937529906 4.6885800666160895 0 0 -2
203 3 10.328740384343917 5.117053993321996 7.435172986630922 0 1 0
168 3 11.311461418811984 2.8829776416870305 4.906549644952963 0 0 0
290 4 10.809867029195292 3.932132303256776 6.074721342221759 -3 2 -2
124 3 8.124830224246903 12.733982894696112 6.142974995532224 0 -2 1
208 3 8.739271732568731 2.8270271650104086 8.188771549489159 -1 0 -1
35 1 13.392462323463711 4.469162854666824 9.331860473002225 0 3 1
71 2 10.56318984318673 2.664941307582802 5.568156632346333 -1 1 1
244 3 12.287254075324551 2.7553862699214684 6.763152190797038 1 0 0
282 4 3.2539019467821535 3.0193388386158073 0.6812309788012915 1 2 2
14 1 10.97764306039931 0.8872239331332046 8.665982505086816 -1 0 1
308 4 12.521882663951313 2.0384862425811434 9.508320085121637 -4 1 1
26 1 8.561729738103075 3.9609700242865014 6.487035985578903 0 0 1
89 2 12.479378548217024 2.729912299216994 5.447364282062797 -1 0 1
4 1 5.589918840463733 8.040412434816893 5.703962249856131 0 0 -1
319 4 8.680346012525515 1.5922438680708813 7.4988442555410595 -2 3 -1
102 2 5.350986375731595 7.0753007176047324 3.7554625353829505 2 -1 0
173 3 1.0765355652852595 6.83726234179137 6.443164827391963 0 0 1
273 4 3.198831269398702 2.352388492312019 8.244516785610182 -2 0 0
139 3 5.009550907660256 7.685794141787145 6.158015719279798 0 0 -1
142 3 2.626516214274976 9.83933854050051 6.541687846055756 1 2 -1
238 3 4.227550755980445 6.612984979497009 6.291084705870946 0 -1 0
76 2 0.9838209030941327 5.503156818324964 8.468715333637812 1 0 2
3 1 12.902103539868289 9.000123408030525 10.56226375362561 -1 0 0
306 4 3.0760033187168205 12.607032413262647 8.049369760075207 0 3 -1
222 3 9.709833538290585 5.523569357274546 8.023067418384667 1 0 -1
213 3 1.2059933608310747 8.086120323206632 5.921069109623041 0 -1 0
133 3 3.537183413389574 9.627653321104148 9.754722074083364 -1 0 0
259 3 2.661665254084763 5.396281165428603 4.562223663839653 1 0 -1
176 3 7.953601671407485 6.141232390318081 2.179094101337815 1 1 -1
184 3 3.1062100539475086 7.851701183233222 4.633465752147041 0 -1 -1
53 1 7.741934088617238 5.794238327261755 7.0605511101321206 1 1 1
40 1 6.632910890776368 10.749540879144572 7.628584107342306 0 0 -1
271 4 4.418466612279715 6.983731206963289 2.018042682554877 -1 2 -2
304 4 7.036177542252927 9.42275633069669 9.773786537357045 -1 2 0
310 4 8.918353428385814 8.815789852214387 9.21888839533106 0 1 -5
332 4 7.928593608815857 7.1527723627346385 5.564787206510798 0 2 0
278 4 11.417999790621547 5.605451936776382 4.06967309292496 -5 1 -1
41 1 8.845779170802615 8.835766919433933 3.46336884168763 1 0 0
20 1 7.72537383904332 6.640335639048771 8.74033403220805 0 0 0
17 1 6.745514854030182 7.825332617869455 3.354826184994296 0 0 1
191 3 8.9593984395752 5.522415115501212 6.456938532637594 -1 -1 0
28 1 5.8547009978642635 5.594658242984338 4.783169340175215 0 1 0
101 2 5.014145803489734 6.364337397962902 4.813996932716572 0 0 0
189 3 12.529255522832923 9.892544590807418 5.943081962195937 -1 -1 0
121 3 10.014826925237056 6.883248555357377 8.115354387202892 -1 -1 -1
329 4 11.393530557696657 5.075120508844524 4.60516639826151 1 3 1
345 4 7.8399128547530434 3.8999264834350322 10.71783952356376 -4 3 -6
248 3 11.397496399546608 7.64925444351889 5.677350024573292 1 -1 1
228 3 10.279338854853531 3.4638626917627082 7.604250304553645 0 -1 -2
292 4 1.6991402063705974 9.482038284940323 3.7381676644499175 -4 -1 1
272 4 1.262252362877673 6.328204411307353 4.782993503907183 2 2 1
193 3 13.445109338790008 9.205990276850354 5.953843059869472 1 -2 0
230 3 8.594701156658612 7.546712390168258 9.891265024563682 -1 1 1
226 3 12.583225701444313 8.009071733712405 3.3605765017566886 0 -2 1
11 1 11.683628869702591 10.512146846354923 8.625844543403348 0 1 -1
298 4 11.846091114511584 7.095776798063855 7.009793951246039 -3 4 0
175 3 12.60976652612926 10.661558442620944 5.177951374581047 0 -1 0
167 3 3.1829991202290975 10.440420638796056 6.661041094503215 1 -1 1
12 1 1.2479471671045708 10.206394400906312 10.353445359003214 0 0 1
289 4 2.2703812091407984 10.129395790263807 9.905063833678701 0 4 -3
277 4 10.614256380246783 9.930852920854598 6.432322027529584 4 -2 0
43 1 2.5775455571445853 0.5866573083415293 7.776165836565556 1 0 1
21 1 2.4317744671709294 11.595611486529581 3.4703743771880506 1 -1 0
231 3 13.354630100693612 7.866825792069539 5.433773568601408 -2 -1 0
268 3 2.3295459914265892 11.047120052882669 6.103097826244374 0 -1 1
158 3 6.471789896040616 8.464654537419444 4.702330411925149 1 -1 -1
159 3 5.445395455853303 11.969734119560552 7.019907885378353 0 0 0
214 3 0.8667394401745383 12.097248528015847 11.912940854259052 1 1 -1
2 1 5.902475467529967 12.169626936176577 9.690522180812486 0 -1 0
315 4 9.986938345306935 9.25762357723054 12.479411993016384 -1 -1 -1
346 4 8.5754880782222 10.859997755386456 9.075043423266772 0 3 -2
350 4 4.051293534027772 5.180319269051776 3.722165705628513 0 1 0
293 4 5.591655254180776 1.722074094015834 3.9450257554800214 -2 2 1
7 1 8.008745623227583 9.800942021851938 4.4140729936894365 0 -1 0
44 1 6.511550997724592 12.998265653852886 6.713949300754043 -1 1 1
59 2 8.321270728875685 11.100377409482348 7.301041576482784 0 0 1
202 3 4.469645941084526 8.409272715361997 5.277392316625117 0 0 -2
196 3 8.156644953781406 9.336725052291637 5.43725073936601 1 -1 -1
123 3 7.991244085179534 2.105241859704952 7.747745644899951 -2 0 1
160 3 9.26303681807584 10.299963972281226 6.223758150136037 0 0 -1
256 3 12.506106182275378 9.579009491460837 4.830121566578329 0 -1 -2
156 3 3.1951612379470014 10.691791609017105 9.39340732507095 1 -2 0
302 4 5.774980474718633 8.79363468991518 3.5980303197379424 0 -2 -1
131 3 12.925082084752187 12.33107595424513 7.5742048712371695 -1 0 0
207 3 10.907143541397094 12.581790468895456 6.421982882624107 -1 1 -1
137 3 12.194535591464419 9.99253510627009 5.396009558369121 0 -1 0
178 3 8.861405604932255 1.720649358000924 7.804986512449334 -1 1 0
344 4 9.34528307646698 10.016151683229268 3.8166630500463934 -1 2 1
106 2 3.0205630090835585 1.5330025124863131 11.197198386179199 1 1 0
42 1 4.253380430793055 4.102491136550579 8.475356037227646 1 0 1
297 4 4.516081077862728 7.507454915879824 7.068640411294439 -1 0 -6
205 3 2.4810611437276098 0.5832037037167197 9.392942526152776 0 0 -3
360 4 2.1184950678031638 6.810181841648349 9.925790736057493 -4 -1 -2
245 3 3.503986194270483 2.8494914699139726 11.102456156395522 1 0 0
199 3 2.525410223471014 5.212565191794351 0.8465040364044883 0 1 1
318 4 5.832313557807518 4.578562203791266 7.747541460526661 -2 -6 0
311 4 6.513664302210747 1.047105849280046 11.225329813484382 0 1 0
186 3 12.836567731791508 2.7146187251530867 9.580638805843469 -1 1 -2
296 4 8.03739022453518 3.563566309554403 11.409475336575186 0 0 -3
321 4 11.579787781201382 4.05356929924088 7.558871823561419 -2 3 4
118 3 9.653977554464998 4.10927263135498 11.31144602682881 0 0 -1
138 3 6.947161182960425 2.2002106575112634 12.596247535102483 -1 0 -2
120 3 8.55644263796167 3.647118554578331 9.290655111555226 -1 0 0
358 4 1.1309087796389303 2.4170015735794195 2.744058758786371 -1 -2 -2
347 4 6.06452249292042 7.719877277826954 7.0956607741516295 0 0 1
254 3 11.015209008079914 2.537356760644294 9.845734481395626 1 2 0
55 2 8.419453972177735 0.8033465270119078 1.169332592964229 -1 1 1
246 3 8.712324909107075 4.687673491959649 10.786821104144655 1 0 0
109 3 11.637802633918614 11.08051076624276 9.198023958881263 0 -3 -2
295 4 7.39572883055373 2.0413395172548134 10.613659568280976 1 -4 1
300 4 4.207756713446951 1.254385768053754 4.44826861139023 0 0 0
116 3 4.298368116414515 1.248457194270304 9.881535731717364 0 -1 -1
355 4 12.150115790546831 6.122152676407801 8.0327337068968 -1 1 -4
249 3 8.703050515537807 12.941806903142073 8.011619398163779 -1 -1 0
99 2 7.180169701503377 5.078597776403523 11.676871569180802 0 0 -1
149 3 5.157693292183672 8.144372136295367 2.96445685815662 -2 0 0
221 3 7.713996893365829 9.910183708203444 11.66867750984922 0 -2 0
87 2 0.5775199052907213 3.5529638913674395 10.841194974181226 0 0 0
305 4 9.379478226091937 13.378458806811746 4.087874246366306 -1 1 -2
165 3 9.40578842372284 5.704437189481525 0.6201123366879397 0 0 1
229 3 10.955148123484324 2.642663573334923 12.503400606991605 0 0 0
169 3 8.979588561148624 3.7221106935811523 10.991353562382821 0 0 -1
77 2 10.427225060315479 6.6603310681207795 1.3428195744835414 0 0 1
215 3 10.100877635681393 12.669528585473355 2.02433523070375 -3 -2 1
331 4 12.67523878900873 8.606665149916697 11.010497040772426 -1 3 1
312 4 5.0492711928746745 0.87070408505256 4.484240429179842 0 2 -3
10 1 13.394288788983584 3.4032191627093744 12.160485525506862 -1 1 -1
64 2 9.474863272311456 1.646318777915185 11.863063512381395 0 1 0
182 3 4.387417836305895 4.3508492867769455 9.264133993820298 -1 1 0
60 2 2.9103169680320358 6.459445391795727 12.037794719585483 -1 1 2
356 4 1.7497324229184956 8.400222874390238 1.5424109347559805 -2 -1 1
115 3 4.6132761809545 8.063387118733226 1.4074956438494548 1 0 0
322 4 12.724474964708808 7.255054442150158 10.676562311650613 -1 4 2
119 3 0.9358083294490694 5.174409498007055 12.122259589004985 0 0 -1
348 4 3.2498679545788938 8.159630506102747 10.999351062075004 -2 -1 -4
333 4 1.6922914805189095 3.818077984796203 2.7215628587372396 -1 1 2
242 3 3.339241498695718 9.431552334770522 8.038746311665182 1 0 -2
136 3 3.170957577574753 6.391207532841823 7.084542774233244 -1 -1 -1
265 3 3.106505321650434 7.902202996062034 12.72001055248704 -1 1 0
100 2 1.5965110667375038 7.829176959009567 11.65056142316506 0 0 0
223 3 12.659550443540375 5.165594797383793 9.97550808203587 -1 0 -1
187 3 4.4358041109922945 7.0702436454461015 8.769397441254807 1 -1 -2
334 4 6.427586237398302 1.0179824559904076 10.159855133311428 1 2 0
153 3 4.727650924602246 10.630198779376382 10.182934848844988 -1 -2 -2
255 3 4.838829243787111 5.578840667166062 9.605839823875145 -1 1 -2
32 1 5.81220502355259 7.702747405757127 10.518943032240735 0 0 0
328 4 10.045827065241 9.010569297992848 10.088217281865242 2 4 0
225 3 6.220624701893462 6.787750198407094 11.590802034704144 -1 0 0
58 2 8.62721859071518 6.961647774213358 8.361498702821955 0 -1 0
19 1 8.587453305122857 10.445800080149898 10.912825523801786 0 0 1
140 3 6.227715249363768 3.422958466462908 12.654678140773827 -1 0 0
195 3 4.637731085691636 3.422528851156061 7.301015608199036 1 0 0
335 4 6.046871470805666 5.798258204458185 5.262621005611449 1 -1 0
79 2 6.94503955538 7.904503102347677 10.025512897123123 1 1 -1
192 3 8.622005956970817 7.975347477890967 12.107476714086452 1 0 -1
105 2 11.123084360561016 8.48488710550459 11.287447954974436 0 1 0
103 2 8.88623527101829 7.365890791539038 9.100523819536363 1 1 -1
250 3 8.02846075208153 5.519372103428656 9.821475348475682 -1 1 -1
343 4 12.278011441117918 7.958011227750332 10.434221294907227 2 0 0
251 3 10.001958693765985 7.259391959213424 11.353007948721563 1 0 0
78 2 10.150165050969278 5.804575603866616 11.634146964071741 0 1 0
181 3 11.874354844139699 11.07417723776814 0.6557005161298329 0 1 1
188 3 9.432779073650003 9.792662663254092 7.998874047912657 -1 0 -1
47 1 11.48420197611659 8.736199162503695 10.150185014760735 0 0 1
91 2 1.0378884723646298 13.175054280277696 1.1578863466485116 1 -1 0
132 3 2.9471203560632113 8.180046364052924 8.668603936277135 -1 0 -1
239 3 13.1532008564112 1.1373230557166454 12.546193121515376 -1 0 0
359 4 9.950192840505434 12.621704622284511 4.021217268180402 1 4 -5
85 2 3.8939558202039657 12.148397428197306 12.659719615693655 0 0 -1
95 2 4.026249952015707 11.177825326626426 10.03051032445028 1 0 0
9 1 11.803237399837315 8.9272537987937 10.496156199313019 -1 0 0
301 4 4.946392846179327 4.102980078254163 1.3360515464280465 1 1 2
316 4 5.08851661231996 7.9999985256629955 1.8250294320824778 1 -3 1
166 3 2.4017162220805126 0.8193776280885954 10.480350629633701 1 1 -1
353 4 0.6810465909920994 13.226344655276844 7.103595845826882 2 -2 -1
284 4 7.275319758755669 8.162057704562763 12.608340215615724 1 -1 0
107 2 3.9436609296028684 0.7412050673186574 11.438692405234326 0 1 1
38 1 6.144411955788463 6.906218291517018 9.204660360322833 1 -2 0
18 1 6.30516626778944 11.431429731821748 11.389418466289834 0 0 0
258 3 6.21645116186107 1.6379162929823 3.7132620424946032 0 1 0
294 4 1.8843990027972672 9.566555448041598 3.7459788172789823 -5 -3 -4
36 1 6.686282803962069 9.49677492761888 2.154948826204405 -1 0 3
240 3 8.667743063941476 11.598308377050216 10.638193202906857 -1 0 -1
141 3 9.826249748814622 6.355811560823727 7.224914897075982 -2 -2 0
288 4 9.455262705565001 9.603443604900136 1.0190291271314011 2 1 -1
144 3 11.82557656323847 1.4062368361533273 11.931879815614368 -2 1 -1
90 2 11.45851771254264 7.6836973871683165 9.507721651886508 0 -2 3
276 4 7.239595566212897 8.737719071524296 6.006638994947426 -1 -2 -2
108 2 11.000266443080069 2.3378105462272014 11.717430069444392 0 0 -1
266 3 13.012025821588132 10.033039640180732 2.406629749889225 1 -2 2
261 3 9.044964221688328 11.869281535247524 2.5632929520792684 -1 0 -1
68 2 10.474726491092106 9.384873265331692 10.456619903292973 0 0 0
180 3 10.393346885594198 10.10232921990033 8.951063997216593 -1 -1 0
56 2 11.130882209877594 11.34691849704317 8.221810111204123 0 -1 -2
171 3 10.3357483244931 13.017226396476094 4.8429162578089375 -2 -2 -1

Velocities

243 -15.22918717981451 10.89830336783062 -23.572449643172718
146 13.589734228902813 15.469840900357063 49.745755138128445
16 0.09102376658813405 -7.496887252753751 1.0932282312083745
224 -3.882868308185733 -7.197681958501523 0.8355276226907975
200 -9.69772883074827 -25.706477788721685 -31.724610829328785
74 -10.24332943416198 -3.2615785595470563 -7.131494836860009
5 25.988513092012962 -30.461350472146727 -24.79042983927877
27 3.6770109538108313 10.340635007507299 -19.12452709991362
52 5.511556466267865 1.5313944035689397 -11.657606049465539
281 30.411909487531357 17.116139993451082 -10.799662884223434
324 -17.248935636452927 2.0476848296842216 3.2884451595476323
31 -12.037203009665493 -22.51287496408808 2.982037816865343
88 4.395160853561976 0.12849895781600187 1.8338385127809853
114 6.409538978349387 -7.5463204039926906 -29.17355309858246
62 1.0534394261815707 3.888499542823543 8.549698033902118
260 3.6812759453521795 -9.178856055151293 -6.924118677190189
82 0.027967706284903904 -2.0503661101846036 1.6117509405203168
235 -2.202726469948925 -14.455944312004004 -10.935466115365854
232 -18.622285281686157 20.39397855404326 2.772312420347165
357 18.883641757417173 -10.851124776377295 15.804271928591586
1 8.08158607695866 -7.105856644608189 0.6917049002388752
309 32.487165991034466 15.407922549579226 -7.205662135319328
63 3.2378286941373147 -5.1900741734797515 -2.2148012303563216
341 -3.8894108717273506 -10.360200682913323 0.3426969455435008
270 -7.944429340790848 16.48003386064308 -8.442361543506046
65 -18.53322920063274 -20.690203267124 5.849313601678138
22 -3.394604352876194 -3.5047344938292273 -12.218297234704194
323 22.69563055619622 7.03820469591073 43.88440123044679
314 -5.785215021531682 15.232594337239638 -1.3083746196922033
129 11.616110724171266 -24.92404263297422 -19.924500023560302
262 -1.4969688362936349 -8.942751105793445 -6.8624906245731285
94 -19.695820699595533 0.5893965948132325 -20.293243098169615
113 20.819286023989537 8.739857081046699 14.025612316670065
274 -50.764835857654155 25.197297059080718 -6.977782488727734
30 -19.491349721268378 -5.402554763522131 -31.541371231055418
317 38.662025994513314 -13.241711501848037 -18.3197968355181
303 -3.0602302230481784 -9.6867778241442 9.765548896401725
164 2.1343948504008545 -19.50655638376601 -10.611677344464669
179 17.35385596618357 -2.9161824220976955 18.599157107913463
111 1.591458860527536 2.7285771047231084 20.505319189325128
220 7.277194891874082 20.23475449096502 5.781050527135416
269 -3.2498143776605395 18.635704951028426 34.632022624460326
177 -6.795448708968255 39.429207998423706 25.030003342701914
194 8.336793610176242 -39.36119326659985 -9.091444037839825
172 -0.8563894725070259 16.987296709393334 -21.96772939518998
157 27.116263703166272 16.088535986399442 14.352807636673159
70 12.480387499432233 1.7683409292291474 1.6369042968780008
61 -3.991082631106162 -14.723507936717537 2.891128655892696
34 -6.842317719158727 11.875502193216656 -3.826254663562345
92 -7.906832367659963 21.483091053438887 -2.9392472627960147
83 0.6637073368204386 9.515700300825431 -35.51176628249878
73 3.675153308047022 -3.4606736506215894 -8.7420496649344
80 1.573501962707024 17.058576481211855 -13.581112509105843
125 -14.923859793452332 -0.21856946157103901 0.8513650848378879
49 -24.286378953331315 12.675392118141032 13.304960456716568
50 7.630524512787056 -3.0046614875707647 -2.031139293201967
122 -1.9586967211648993 -1.2227908570046278 20.98242376894686
320 -26.172635722504214 4.34585270025307 21.56076179003104
280 3.5597016030672735 -5.511872542631455 24.636816030852792
37 -2.232750602346722 14.587934766698321 8.311465118950771
354 -49.305817853166026 1.1626149720435923 16.47177116976301
287 15.463816147359548 43.977066997185716 32.754055473446115
233 0.35104344118188696 4.5478163166138525 -6.626838611551135
327 -3.0548704842355567 2.07638396798853 4.3060699924086645
209 2.5111304561052608 -17.472186068488554 6.629216419385564
135 -5.852762996197403 -16.07737588031954 9.017238004037564
197 9.114853180543129 18.32956936328856 11.566377959455352
330 -5.617438780168904 -27.412150070041438 16.85711801278417
23 -1.5517388161233445 -8.276837429682761 1.2870914553719346
218 -21.698649640973933 16.44605694082503 -12.00609200584365
54 -10.472408716958345 -8.534956393108649 6.602841049292979
342 12.346557518400475 39.116224831827196 -3.0390167619102573
170 -1.4150448424249267 12.757133144973528 20.30418832285872
134 -4.576022797456033 -10.838341318100444 -14.207423670101699
128 2.503051062263543 5.5725046233768785 -15.864620187885453
211 17.533266909991525 -10.956162967062282 -5.240858741948573
69 7.898173414954771 -12.2533730354126 5.204166282981687
198 0.0635419054869322 -5.107920825832439 -4.812219308198615
206 -3.8641641452548328 1.6996409135488042 17.503289312772026
29 5.361643906207266 13.248192371063249 -1.512900518523964
247 21.61833759736889 19.859050605194625 7.474900827675921
161 13.778811022235944 -12.418834115929133 5.832359921006335
279 -116.05759157655501 -36.86268667365849 -13.486976567880546
275 -35.26662504796562 -44.34072896134828 -11.21449003694923
237 2.5741293055307195 5.070439136410896 14.016752235525075
57 1.8356314854221496 -2.813317439412164 -0.6220007952362157
39 -10.145988566462075 10.349296200343913 -3.8182727178522784