LAMMPS data file via write_data, version 2 Aug 2023, timestep = 120, units = metal

28800 atoms
4 atom types

0.2554599136768019 55.78454008632322 xlo xhi
0.2554599136768019 55.78454008632322 ylo yhi
0.3026862645992594 66.09731373540059 zlo zhi

Masses

1 24.305
2 28.0855
3 15.9994
4 4.002602

Atoms # atomic

1 1 2.567405000657793 2.3697802044330736 1.8526855612577218 0 0 0
58 2 2.5013230815438177 55.677392459747985 3.4213193853471404 0 -1 0
109 3 0.31060534021453445 2.0076610391073286 1.6466201488778978 0 0 0
112 3 2.515873598308245 0.7154498212008661 1.6626411829454433 0 0 0
113 3 0.9466106342422385 0.9427153310133499 3.5614702917226975 0 0 0
114 3 1.7991367680410906 3.4357229757353047 3.1857167228168204 0 0 0
118 3 3.6577107075998727 1.8489667775138998 3.633510986699874 0 0 0
120 3 1.1582966938957613 3.8843044796763992 65.78127798729706 0 0 -1
115 3 3.3448214809130987 3.5970275040336643 65.85777489210001 0 0 -1
117 3 4.076667813741264 4.181894587045317 3.372037230761816 0 0 0
73 2 4.803072525980635 2.710848900884894 65.50762793137815 0 0 -1
75 2 4.948084150878369 2.8252009449746813 3.2576657214099467 0 0 0
163 3 4.455526893643478 2.290032965858497 1.5004446141706373 0 0 0
167 3 5.788119947548134 1.3954490785939744 3.4880326210215524 0 0 0
168 3 6.584268739141919 3.4678569995853006 3.174298396852907 0 0 0
174 3 5.76262358738781 3.9499960313848743 0.3480887713114115 0 0 0
19 1 7.271260932590377 3.0173355624252634 1.6397169956350763 0 0 0
76 2 7.386619722551627 0.33292134762561476 3.4076317765622233 0 0 0
166 3 7.161567503019205 0.8677506007427663 1.3005570416003627 0 0 0
93 2 9.567955930296883 2.360334961381299 3.261914253960834 0 0 0
172 3 8.11160823759869 1.7726261766094653 3.523982324840467 0 0 0
217 3 9.779467297586509 2.2276535499228736 1.4031106205982136 0 0 0
221 3 10.309088708979665 0.814747468805077 3.5446612059427447 0 0 0
222 3 10.861224812958413 3.556531139352706 2.8529243371069586 0 0 0
228 3 11.229859857112608 3.5927180687926956 65.6489746142513 0 0 -1
169 3 8.43928079399882 3.388051538003731 66.06330547570472 0 0 -1
171 3 8.70259889348528 3.7896935252690973 2.741438493783613 0 0 0
37 1 11.786922124259165 2.6417435582156763 1.465688000158362 0 0 0
94 2 11.798328786236073 55.669315947976344 3.225703484404501 0 -1 0
220 3 11.551292478662576 0.7232370183268302 1.5843964739019099 0 0 0
226 3 12.519388652369804 1.766099957699477 3.776122793905867 0 0 0
417 2 14.072945695319177 2.588966334633006 3.4038797722201606 0 0 0
469 3 13.849868353110367 1.9589742964607908 1.8801461535556492 0 0 0
225 3 13.16188584204898 3.9813955576017044 2.9496256928518654 0 0 0
361 1 16.79626789700153 2.5497416182694375 2.0545010844633564 0 0 0
418 2 16.576078420003054 55.7676210068661 3.339218682658422 0 -1 0
472 3 16.27221180600483 0.8225427173214644 1.8141423142504376 0 0 0
473 3 14.91588342847986 0.8904591588929439 3.730695549735625 0 0 0
474 3 15.448814454483303 3.2880379821497185 3.2012307006947323 0 0 0
478 3 17.244499821087217 1.7561432786997047 3.685372744912483 0 0 0
480 3 15.694305670165274 3.1246005191681916 0.334949440943118 0 0 0
435 2 18.723705256043793 2.6270393202039783 3.4450866592087905 0 0 0
475 3 18.271180695812454 3.659301905003854 65.56106484544557 0 0 -1
523 3 18.793438493590706 2.369707879836299 1.5203147913764894 0 0 0
527 3 19.74838249336011 1.3781658186781192 4.024481456155349 0 0 0
528 3 20.2668515018801 3.5723353438843533 2.9976395403121017 0 0 0
534 3 20.70039132631172 3.5335469527806245 65.84093190314955 0 0 -1
379 1 21.5586746954482 2.7532906997223012 1.4288554194375624 0 0 0
526 3 20.635607434747005 1.0354807183686772 2.0710089034074812 0 0 0
532 3 22.249845030142705 1.741449110976 3.979013007326127 0 0 0
451 2 23.805117931704686 2.572516156541111 65.70402496818264 0 0 -1
453 2 23.567511862647805 2.6035481218833634 3.3724216600888464 0 0 0
577 3 23.452722699182626 2.20460335601219 1.6631041685302912 0 0 0
581 3 24.20277526306253 1.0787778212098538 3.790083110071683 0 0 0
397 1 25.9223020921172 2.755674908021133 1.465332777639467 0 0 0
454 2 25.49935547211261 55.71903059477309 3.255872761360701 0 -1 0
580 3 25.16680513750624 0.9848103879176735 1.4618280900722016 0 0 0
582 3 24.922016915592575 3.623241633360876 2.7055274432424685 0 0 0
588 3 25.154522693668333 3.5516290480251294 65.94090086806273 0 0 -1
531 3 22.451811514471316 3.975922389022306 3.0217644441718767 0 0 0
777 2 28.121847090919516 2.294453849245577 3.6079371290889806 0 0 0
829 3 27.58461179324165 2.011437732327109 1.265022948729119 0 0 0
833 3 28.590025818961916 0.7400323908085236 3.7690978701838787 0 0 0
834 3 29.468412451514684 3.6340141009847797 2.7378622764644223 0 0 0
840 3 29.216090196868464 3.790461683532136 0.334049342774016 0 0 0
583 3 27.341309976869372 4.071437864940289 65.75949585709999 0 0 -1
585 3 27.2994390708038 3.8719488546573726 2.914570077649932 0 0 0
721 1 30.569211065612425 2.6940032051916023 1.7180914844283475 0 0 0
778 2 30.198798048089074 55.7400552769719 3.428223195152232 0 -1 0
832 3 29.94742509814839 0.7985584155067843 1.7626800149622832 0 0 0
838 3 30.818309096014904 1.690416238333886 3.544514717564906 0 0 0
795 2 32.66448805864008 2.507257736169889 3.3480472399174066 0 0 0
883 3 32.55354852230629 2.1562575636973103 1.5240918731067994 0 0 0
887 3 33.42783468802931 1.1625037192562573 3.9500532020736063 0 0 0
835 3 31.7926578522745 3.864080660784306 0.3894910967497784 0 0 0
837 3 31.65759182727041 4.059943249930055 3.056858501079734 0 0 0
888 3 34.0789297347319 3.437183591066885 3.0724796071990257 0 0 0
894 3 34.157794563810945 4.102722125545338 65.82821145044011 0 0 -1
739 1 35.04631281480352 2.809787975793802 1.6435523947462278 0 0 0
813 2 37.22888588475579 2.794696575614019 3.717781164991323 0 0 0
886 3 34.528721011017936 0.9005207986950551 1.7431378383913017 0 0 0
892 3 35.55590935929679 1.9701909466619627 3.8692891145693062 0 0 0
891 3 36.4371717233558 4.038620005663642 2.655716693856598 0 0 0
937 3 37.129624690800625 2.3564763030357816 1.2036783128439459 0 0 0
941 3 37.92405188526864 1.0367311533237131 4.000730800408961 0 0 0
757 1 39.58192722386133 2.4142203142838192 1.8454184771931794 0 0 0
940 3 39.14608911770178 0.8198659805324152 1.622325439619807 0 0 0
942 3 38.72390822325687 3.4437231923301974 2.9300233367198065 0 0 0
946 3 40.3274528534449 1.9098787805814612 3.575220214483297 0 0 0
948 3 38.73360109840363 3.8276475765343694 65.99042967990248 0 0 -1
945 3 41.04551437727701 4.013203139511211 3.2455035007970543 0 0 0
24043 4 42.618661904255184 0.5386212466165651 65.08224318162013 0 0 0
1081 1 44.49864043712252 2.600733274397072 1.6148673954810293 0 0 0
1137 2 41.86837126181749 2.5441117940586544 3.6868489869255927 0 0 0
1138 2 44.137873816080635 0.3127552732735035 3.2995235782697527 0 0 0
1189 3 41.52321075126988 2.0553909200566505 1.527229483064536 0 0 0
1192 3 43.70174099205855 1.0396413251086476 1.9603399377241535 0 0 0
1193 3 42.528709249897105 0.9656188130745712 3.841579207556217 0 0 0
1194 3 43.156715761780426 3.443637970905056 3.0478784856958505 0 0 0
1200 3 43.58389466421095 2.9983868825719404 65.708235294238 0 0 -1
1198 3 45.11793315950959 1.790164549100564 3.794190193906505 0 0 0
1153 2 46.57517902359752 2.7675154674254148 65.78799674543741 0 0 -1
1155 2 46.67540618732783 2.47506274587261 3.3692260744555647 0 0 0
1243 3 46.420762814492115 2.118425571378859 1.6382873292670963 0 0 0
1247 3 47.31364536795387 1.1059796526596664 3.7401128880789067 0 0 0
1248 3 47.99553969872481 3.5962997401118475 3.0706537181623963 0 0 0
1254 3 47.6760999083456 3.801081718845912 0.4375904715791351 0 0 0
1099 1 49.214925746827625 3.0031319296193786 1.6654054133221885 0 0 0
1156 2 48.862518480243764 0.4630846305344227 3.103667564849112 0 0 0
1173 2 51.16340006569828 2.6164821612227516 3.3664166560155433 0 0 0
1246 3 48.386989790009366 0.9211419699742606 1.4853256100999728 0 0 0
1252 3 49.77516453053477 1.8867690125308128 3.286360160550943 0 0 0
1297 3 51.09842078278582 2.446906422949584 1.3321926677669291 0 0 0
1301 3 52.22994262692365 1.0104962300985179 3.9001841616096526 0 0 0
1249 3 49.92954141164258 3.8578194378730393 65.60315584617396 0 0 -1
1251 3 50.39235416842087 4.0837955074862204 2.8912737869609626 0 0 0
57 2 55.76301413395191 2.6620437700296513 3.478325127418579 -1 0 0
1117 1 53.22467981589525 2.5385131666828507 1.504101967752869 0 0 0
1172 2 53.57958420147225 55.68416455013403 65.77269302531246 0 -1 -1
1300 3 53.244725418504956 0.6658726969858896 1.6251288614977308 0 0 0
1302 3 52.57260232260181 3.232485278497588 2.9365413875861246 0 0 0
1306 3 54.469999471510505 1.6133489715074059 3.7129390588353384 0 0 0
1308 3 52.33598335282276 4.084746400490953 64.96632508118866 0 0 -1
1303 3 54.54208793975704 3.7740112972382778 65.99035501323858 0 0 -1
1305 3 54.809662483084175 4.170355949683643 3.0779653048636755 0 0 0
4 1 0.5198236116457069 4.6393783684677 1.5592577681178026 0 0 0
64 2 2.64559759373134 4.913448150588755 3.5195700672632277 0 0 0
127 3 55.48839334334743 6.539111180359408 1.6203231379037373 -1 0 0
130 3 2.4051175785281766 5.445416470981565 1.6281993994374735 0 0 0
131 3 0.9803934828799392 5.592968483490186 3.634515929389444 0 0 0
136 3 3.396240051534359 6.405545653168473 3.793176993446922 0 0 0
7 1 2.6972143673787863 7.5259835069400784 1.304755713091251 0 0 0
63 2 0.42492872438322443 7.09115644579209 3.310706695397382 0 0 0
22 1 5.069020109200157 4.995137773541701 1.8785318844810235 0 0 0
181 3 4.674438688001202 6.8674122532412305 1.4922878760103435 0 0 0
185 3 5.843117400375988 5.590340806877498 3.8472629673816123 0 0 0
82 2 7.389895315588838 4.922869376735392 3.36843954436118 0 0 0
184 3 7.333119338385716 5.2742657729571505 1.5567193910664316 0 0 0
81 2 5.066976625375444 7.337997907195562 3.410765990417339 0 0 0
25 1 7.42250959564353 7.415323547320544 1.2950180967230476 0 0 0
40 1 9.79812376229829 4.731311645721431 1.4569082196640695 0 0 0
190 3 8.233956671745716 6.395996730473191 3.771724264212897 0 0 0
235 3 9.337536200358752 6.842013282776662 1.414433343295404 0 0 0
239 3 10.499867065089648 6.024707783788972 3.7908607640236682 0 0 0
99 2 9.46131023879384 7.354649452596379 3.2460388549310006 0 0 0
100 2 11.862810849127904 4.785817748047775 3.3803881009736436 0 0 0
223 3 13.628331335227267 3.7475746742617484 65.9322032954216 0 0 -1
238 3 11.600807516992319 5.401767965584655 1.693759797904447 0 0 0
244 3 12.715630669467943 6.450548199652035 3.8380437619051246 0 0 0
364 1 14.67231021546563 4.429245170910411 1.5280001132398235 0 0 0
487 3 13.753211898024256 6.334979252532818 1.7035040750829793 0 0 0
43 1 12.164612584379249 7.187217730196637 1.5341308205077762 0 0 0
423 2 14.078813540698116 7.0176415740362845 3.2133066518036957 0 0 0
424 2 16.636836965493796 4.835880331967285 3.5306829615450157 0 0 0
490 3 16.476772007877518 5.0109697703871 1.7565143636570077 0 0 0
491 3 15.067700960190251 5.606195847845579 3.651683175922182 0 0 0
496 3 17.377311250392328 6.292868878841512 3.961339952908266 0 0 0
477 3 17.943195591541755 4.000171103725908 2.992231804855755 0 0 0
367 1 16.608800194757652 7.116759522927687 1.7457930892760398 0 0 0
439 2 18.693786558692025 7.480086180774691 65.68657415047292 0 0 -1
441 2 18.777045675104258 7.219793218071463 3.5257470141520932 0 0 0
382 1 19.198297263394245 4.640006346060568 1.2241334107090807 0 0 0
541 3 18.499041577827835 6.720023360483965 2.001340084250924 0 0 0
545 3 19.768467130284733 5.62625902897694 4.000961123290178 0 0 0
440 2 21.653717795936355 5.016866399279138 65.8257053761392 0 0 -1
442 2 21.214929457860865 4.870515700644071 3.684351226407307 0 0 0
544 3 20.75045363979959 5.417457620465366 1.4924483543925382 0 0 0
385 1 21.41633691471331 7.134380725523657 2.129976248179105 0 0 0
400 1 23.704471774830832 4.741534007862367 1.6754228710689159 0 0 0
529 3 22.915149543385763 3.858547625981324 0.3672731264729589 0 0 0
595 3 23.17418584648456 6.408884087397271 1.5297431879396945 0 0 0
599 3 24.37824670112315 5.494475236491662 4.147217869000491 0 0 0
460 2 25.947848779120772 4.739691069120287 3.4839360815013785 0 0 0
598 3 25.56031104288809 5.514651179059394 1.1727312224365032 0 0 0
459 2 23.70638228794499 7.058558828011229 3.8230696530729835 0 0 0
403 1 25.768255218865637 7.473253282572465 1.3228448779133783 0 0 0
604 3 26.559670510785242 6.335555442892323 3.427058874298877 0 0 0
724 1 28.447866783428054 4.821844778134287 1.6277634102447642 0 0 0
847 3 27.727673621325067 6.866840353547601 1.3467865505058554 0 0 0
851 3 28.845007207815552 5.685218030047235 3.4002064278648287 0 0 0
783 2 28.194687320074426 7.110361736762184 3.3063194195434096 0 0 0
784 2 30.373770916715777 5.035631142077197 3.197175174755371 0 0 0
850 3 30.14033469381443 5.421900494871513 1.4802158622524035 0 0 0
856 3 31.16033078080373 6.318064344494598 3.970592058295168 0 0 0
742 1 32.99107565727626 4.635531512186003 1.5903749728896515 0 0 0
901 3 32.21113697109517 6.493947064077991 1.824507408064291 0 0 0
727 1 30.724990283917784 7.423598802883307 1.3084608716781712 0 0 0
801 2 32.57355933865266 7.017898842094753 3.4940137642535554 0 0 0
802 2 35.11579007947881 4.765546651629536 3.4020660598698065 0 0 0
889 3 36.36990835158052 3.834868363698503 65.63354265379331 0 0 -1
904 3 34.82631351733861 5.38632287300696 1.7158005848564184 0 0 0
910 3 35.85162517021049 6.321875632045423 3.810624433789294 0 0 0
745 1 35.218805036217375 7.65652831690367 1.4994783101929285 0 0 0
760 1 37.45561660709094 4.952476931756433 1.5422516047446295 0 0 0
955 3 36.98081473602097 6.911294752964309 1.50060224447131 0 0 0
818 2 39.63787839487579 5.2184879499262005 65.48920481677439 0 0 -1
820 2 39.68005379874964 4.789628981596962 3.4496840845097996 0 0 0
958 3 39.65226622498018 5.137542921308121 1.4934027161360917 0 0 0
964 3 40.27770907264989 6.398282039538435 3.6668528237521913 0 0 0
819 2 37.307138746240824 7.158931643421699 3.4403113814958433 0 0 0
763 1 39.65635356331146 7.265200249721903 1.4512451632071388 0 0 0
943 3 41.41567848388425 4.231566738550705 65.62924378507283 0 0 -1
1084 1 41.87649212429575 4.716135790409789 1.8253551502293608 0 0 0
1144 2 44.30272368846003 4.784066417353522 3.4381866432229717 0 0 0
1207 3 41.90027824421381 6.902857643620786 1.747015615516946 0 0 0
1210 3 43.66691511011687 5.310313879782371 1.4706876862520877 0 0 0
1211 3 42.97598413089583 5.755345509995735 3.813937798110728 0 0 0
1087 1 43.98016206814072 7.208689394410471 1.7712494445764178 0 0 0
1143 2 41.857542521178026 7.15997979479641 3.3696522556283246 0 0 0
1216 3 45.15686685111005 6.146411350689664 3.813891333238179 0 0 0
1102 1 46.78812565869603 4.894398734376251 1.3899132914834136 0 0 0
1195 3 45.56301220212437 3.905064729959552 0.4469250883605591 0 0 0
1197 3 45.61744363086462 4.116689964055888 2.9259637546877624 0 0 0
1261 3 46.205577799253 6.7140904669295525 1.705030866383457 0 0 0
1265 3 47.291018908397405 5.65817517182626 3.57452008319103 0 0 0
1161 2 46.47528827428523 7.1335777556658355 3.3651551010843708 0 0 0
1120 1 50.896121949549965 4.700633704597657 1.3487715167570644 0 0 0
1162 2 49.03306286269103 5.037787391815592 3.3688367038938383 0 0 0
1264 3 48.80567295634735 5.371571070554085 1.473433241592984 0 0 0
1270 3 49.59092183232641 6.502879180803977 3.588888575252301 0 0 0
1315 3 51.16136023923428 6.837019769440781 1.5049531232537399 0 0 0
1319 3 51.6945202000568 5.556323113801644 3.8399729695291525 0 0 0
1105 1 49.039126352760334 7.648760132074248 1.720589015436797 0 0 0
1177 2 51.3082755922353 7.500234413552077 65.49178004693225 0 0 -1
1179 2 51.2302839446374 7.253133565063204 3.2731100039707965 0 0 0
1178 2 53.37923803565354 4.9906416436027525 65.54920378796484 0 0 -1
1180 2 53.14307703347413 4.651366838164776 3.4952004755931143 0 0 0
1318 3 53.0907139801231 5.061660556764185 1.4990246775162637 0 0 0
1324 3 54.03662337865111 6.091939082077056 3.6283981505213445 0 0 0
1123 1 53.492135162218425 6.936046592088355 1.5617919842813972 0 0 0
10 1 0.3389259523369045 9.136369492388933 1.3308302365224105 0 0 0
68 2 2.9484867992943986 9.608725982349563 65.25135823124766 0 0 -1
70 2 2.725197690845887 9.557055382093376 3.505466389631684 0 0 0
132 3 1.746691584044295 8.033535003744134 3.027629741666959 0 0 0
138 3 1.7787722709082454 8.311817932097641 65.56790519164882 0 0 -1
148 3 2.5956490937122654 9.604968387621346 1.5840409156440225 0 0 0
149 3 1.162943776376764 10.234945925050654 3.7017741407241807 0 0 0
133 3 4.131904986914679 8.41110607885385 65.52936643756217 0 0 -1
154 3 3.3715440690422795 11.075312013076314 3.7115706468964893 0 0 0
28 1 4.868732670077309 9.071977238628008 1.4723308806945659 0 0 0
135 3 4.009721015396043 8.734748371845841 2.9747876055564846 0 0 0
186 3 6.3640595963901365 7.9212838160680334 2.6487037677823526 0 0 0
192 3 6.141477676088892 8.334923312101745 65.62278916940168 0 0 -1
86 2 7.428489147860142 9.378847338487216 65.34007715229326 0 0 -1
88 2 7.296971996138019 9.790336273626117 3.2103004869828533 0 0 0
202 3 6.766018097461544 10.305553516244307 1.4212316058177485 0 0 0
46 1 9.615505841685744 9.430734413840755 1.6236466169147699 0 0 0
187 3 8.374175714446388 8.365325328024408 0.3551241154897999 0 0 0
189 3 8.463403238451928 8.712383597980185 3.1243868598436086 0 0 0
240 3 10.776361366680979 8.279850501882061 2.7909411052164934 0 0 0
246 3 10.812165014990773 7.867819666189504 65.52224691796496 0 0 -1
208 3 8.158604250325858 11.10798773603614 3.8447891823491944 0 0 0
253 3 9.408256221370847 11.405393007215663 1.3496438295789621 0 0 0
106 2 11.888510538308614 9.387245079333805 3.4476668845574427 0 0 0
241 3 13.249698917467727 7.895106405556904 0.3453156146069749 0 0 0
243 3 13.305133252725547 8.759068851344075 2.717120869240197 0 0 0
256 3 11.32172731731059 10.096977357693417 1.6003101605696897 0 0 0
370 1 14.028470258830241 9.488913257240625 1.3561548771527636 0 0 0
262 3 12.481790640902135 11.043719883961984 3.931092662458858 0 0 0
428 2 16.40019679341348 9.590302537537527 0.31355921428899025 0 0 0
430 2 16.39805689823298 9.352421036192744 3.6263838957587344 0 0 0
492 3 15.390894492798303 7.84308121274704 3.119527755766032 0 0 0
498 3 15.653231927683407 8.111559662970853 66.04788981002521 0 0 -1
508 3 15.904315291039483 9.949472347303695 1.801882501387412 0 0 0
509 3 14.819121489910918 10.1832426637978 4.033207131354395 0 0 0
493 3 18.06326242903008 8.847144333046117 0.5648133797960185 0 0 0
495 3 17.6323949716095 8.441579352747793 3.0220720216216694 0 0 0
514 3 17.28912382845677 10.68158946567855 3.8628194947925367 0 0 0
388 1 19.243572085225374 9.396609552750737 1.9989196990466023 0 0 0
546 3 20.133439172585692 8.08714032129684 3.1679269934116454 0 0 0
552 3 20.08770860569169 7.999970364523459 0.6515723959843269 0 0 0
563 3 19.684811027961665 9.999443476367567 3.7926247367933508 0 0 0
446 2 20.817837191206507 9.220991278887047 65.5985664871487 0 0 -1
448 2 21.20542823549858 9.435071857139292 3.7433106992201717 0 0 0
547 3 22.289744139658264 8.217754747966481 65.46034136629568 0 0 -1
562 3 21.07448303668153 9.807244288264028 1.4306194611362208 0 0 0
568 3 21.8786650900078 11.17075372848537 3.9790973346150356 0 0 0
406 1 23.162658792052888 9.268111832034867 1.8799817896773356 0 0 0
549 3 22.576016234651146 8.374874129759876 3.2763498660230526 0 0 0
617 3 24.30591276763382 10.000866909654162 3.591243017330924 0 0 0
466 2 25.803131117635278 9.47320389727366 3.3474156620651603 0 0 0
600 3 24.764853661075975 7.848393667391139 2.839949584447627 0 0 0
606 3 24.580045859525644 8.20878500464801 66.09263784955509 0 0 -1
616 3 25.775735605986014 10.036646153902522 1.8794410693540209 0 0 0
601 3 27.06284552503042 8.655959590504992 65.6619416746442 0 0 -1
603 3 27.089144515609757 8.60503164727517 2.8866339044069655 0 0 0
730 1 27.82932168793309 9.504506720951817 1.3862946932157703 0 0 0
852 3 29.36676710803953 8.1217694796014 2.6702134625833067 0 0 0
858 3 29.30801258472423 8.520711430828731 66.03927903338973 0 0 -1
869 3 29.056175474134182 10.345866771700967 3.6381508506485654 0 0 0
622 3 26.69547095569167 11.071086367351517 3.7516906214575227 0 0 0
790 2 30.43290250986072 9.494706834753384 3.079706813393123 0 0 0
868 3 30.35842622464093 9.965084170836665 1.5171600871857873 0 0 0
748 1 32.446168241367516 9.386015326187913 1.3696165766928028 0 0 0
853 3 31.990044208179594 8.039355936905956 65.72036346237495 0 0 -1
855 3 31.711521118295543 8.479569340353041 2.868874747234974 0 0 0
874 3 31.42722358731091 10.78187892571585 3.9362457275871625 0 0 0
906 3 33.96925102765521 7.839968007040427 3.029032122164178 0 0 0
912 3 34.23145430551531 7.62870937517978 65.5418713970469 0 0 -1
923 3 33.41771420798225 10.151077965566136 3.7336411991583636 0 0 0
808 2 35.032515254351715 9.325554859022446 3.2345474582600637 0 0 0
907 3 36.35682122533968 8.323001685320172 65.77533650696118 0 0 -1
909 3 36.54999959023361 8.697505715539032 2.8485404944623096 0 0 0
922 3 34.75101650363465 9.584609808378259 1.4613668083812166 0 0 0
928 3 35.56143516450486 11.097416218364454 3.494890715265317 0 0 0
766 1 37.30084683851996 9.38704466953288 1.427197616472749 0 0 0
977 3 38.23841206610859 10.381222007284888 3.624441869738063 0 0 0
824 2 39.87892757101169 9.58129505941026 65.82440583948627 0 0 -1
826 2 39.67390440870932 9.514928100114584 3.462174479408408 0 0 0
960 3 38.675270411975596 7.926321651868223 2.9872886999074937 0 0 0
966 3 38.92759710070945 8.00352845631063 65.55465564011091 0 0 -1
976 3 39.29207922316705 9.682643607801927 1.643596901617903 0 0 0
982 3 40.49276921845364 11.041773253619267 3.6016934931395514 0 0 0
961 3 41.08980741913833 8.549988730383264 66.09706097410269 0 0 -1
963 3 41.28719595544196 8.663111150693165 3.3255048881720963 0 0 0
1090 1 42.08544058049748 9.492734994113043 1.5244056684208347 0 0 0
1150 2 44.241866108367134 9.374360497817719 3.277504294408315 0 0 0
1212 3 43.440913099440856 7.990866681946467 3.1679899051011273 0 0 0
1218 3 43.51257340075184 8.19456934473683 66.00925568005557 0 0 -1
1228 3 44.132217911771185 9.699987016089512 1.6171903440269393 0 0 0
1229 3 42.82379182135047 10.50439631836478 3.383487022359055 0 0 0
1108 1 46.81803155525106 9.250842482466128 1.3347525182786224 0 0 0
1213 3 45.5904740215993 8.6130349117377 65.97682067682699 0 0 -1
1215 3 45.776525853254846 8.772896018025934 2.8905622908284605 0 0 0
1266 3 47.77165483539591 8.047734614910809 2.793794555356307 0 0 0
1272 3 47.80068406300785 7.5886349806866615 65.99581207522422 0 0 -1
1283 3 47.434431449327484 10.241328271794362 4.123614470229553 0 0 0
1234 3 45.02019447314042 10.801349197749568 3.946148888988029 0 0 0
1126 1 51.12520902788148 9.605958227612954 1.4582355336723487 0 0 0
1168 2 48.741040600119774 9.36779057756891 3.3878328527042583 0 0 0
1267 3 49.954783669685646 8.538075742982347 65.89499633601545 0 0 -1
1269 3 50.16307087338376 8.304795984986399 2.626995476630768 0 0 0
1282 3 48.47602804751982 9.798328800026663 1.4939500471143032 0 0 0
1288 3 49.61521701759545 10.984461478847757 3.7395318279238863 0 0 0
1337 3 51.96723755949158 10.27333639884362 3.801680443766079 0 0 0
1184 2 53.66759299682084 9.653144446656055 65.86397797601846 0 0 -1
1186 2 53.44109938608491 9.475743859454129 3.2039063545273954 0 0 0
1320 3 52.51076005639856 8.049164975996682 2.648446162205401 0 0 0
1321 3 54.824665086198216 8.440016389579904 66.02175269592303 0 0 -1
1323 3 54.926362032097394 8.486634920151863 2.8309976147044176 0 0 0
1326 3 52.557883571777246 8.423423369706908 65.94186274805755 0 0 -1
1336 3 53.14393562100743 10.400777376536512 1.5264757163223852 0 0 0
1342 3 54.24663250950605 11.121193796579002 3.6777503306856594 0 0 0
24394 4 51.201491220604154 10.196866888046463 64.95677883783586 0 0 0
13 1 2.5305924501708197 11.890916107830972 1.6469336727533264 0 0 0
16 1 55.64617441314622 13.863133390904535 1.3763761273322337 -1 0 0
145 3 55.55850623577995 11.283366540833542 1.8456714824561329 -1 0 0
150 3 1.7131649014848633 12.639784588109455 3.111560305443802 0 0 0
156 3 1.521247955673897 12.500789181325244 66.05329446391225 0 0 -1
151 3 3.9632705608051664 12.77904836370384 65.94780864134904 0 0 -1
1496 2 2.6390478558837067 13.606412316389966 65.32125588169257 0 0 -1
1498 2 2.7374799292995315 14.096472348053942 3.1499723864515157 0 0 0
1552 3 2.18025116508061 14.28420375835485 1.303170528556745 0 0 0
34 1 5.037178161386891 13.68831792320139 1.3173413636211224 0 0 0
85 2 5.195540810350903 11.599406441399383 65.74228768901192 0 0 -1
87 2 4.874728635863777 11.829697566891147 3.261165813246584 0 0 0
153 3 3.9927865012876773 13.21036715955958 2.6242246575579835 0 0 0
199 3 4.400123829324952 11.23105804400658 1.491387540692045 0 0 0
204 3 6.348398685505408 12.776587506245368 3.1086777319477226 0 0 0
210 3 6.403888034864989 12.915987442530342 65.89637905773996 0 0 -1
31 1 7.4317911795322695 12.1427478494588 1.384170656410095 0 0 0
1607 3 5.798136740633762 14.817128684176632 3.92318571009679 0 0 0
1514 2 7.124586372848623 14.457717359055392 65.82731643270951 0 0 -1
1516 2 7.280058151190045 14.303922304206612 3.2062740354038133 0 0 0
1606 3 6.590381498946165 14.558161266224216 1.613316500204946 0 0 0
52 1 9.765954328105172 14.1988908858429 1.3887737502596635 0 0 0
105 2 9.558313606976371 11.822670990873688 3.4310723801935756 0 0 0
205 3 8.581317691677606 13.533130308033266 65.97936798416163 0 0 -1
207 3 8.632056123682474 13.350352069152757 2.616850690765968 0 0 0
258 3 11.033376452561514 12.62364935265237 2.841221924618794 0 0 0
264 3 11.055490907397626 12.942607641080599 65.82107978418811 0 0 -1
1661 3 10.40312996543479 15.022883116388943 3.3912338009548866 0 0 0
49 1 12.0592831378199 11.930242976519343 1.4462597253082894 0 0 0
259 3 13.140009553193726 13.399079178276642 65.99397683193222 0 0 -1
261 3 13.259567395193008 13.233688309576989 3.068002610997984 0 0 0
376 1 14.055677579263268 14.130099544260368 1.6009147547676408 0 0 0
427 2 14.118699885007793 11.664551254168153 65.68773880920806 0 0 -1
429 2 14.03186072590356 11.646029025919926 3.7365673376149786 0 0 0
505 3 13.804382484153937 11.266336946834905 1.4499556328968946 0 0 0
1534 2 11.965514662369195 14.236042530826014 3.389434667360041 0 0 0
1660 3 11.618495633179512 14.602905419776734 1.5033411375101478 0 0 0
373 1 16.66765371270225 11.951084942995996 1.7322121932201147 0 0 0
510 3 15.401872933633136 12.525445644882938 3.235975978972445 0 0 0
516 3 15.413835814693549 12.863687881893062 0.3473712276578864 0 0 0
447 2 18.760883975120638 11.511524194512091 3.418331211571269 0 0 0
511 3 17.606920083689893 12.668456745144756 66.06375515726467 0 0 -1
513 3 17.660224368959078 13.192859150353605 3.093274908784522 0 0 0
1858 2 16.39093580372845 14.09741058226397 3.3662605749350143 0 0 0
1912 3 15.964184435471509 14.528236900979062 1.70273231558878 0 0 0
394 1 18.98552336831522 13.672296448718786 2.1105890563698626 0 0 0
559 3 18.363503199503647 11.255891888376027 1.941201293557731 0 0 0
564 3 20.082639297317574 12.445536110074487 2.895309924073953 0 0 0
570 3 19.806644827159335 12.775890967719873 0.30784069155231725 0 0 0
391 1 21.150385757480446 11.721594565240636 1.4492147183467177 0 0 0
565 3 22.0355844698942 12.413350469958905 65.61799915971068 0 0 -1
1967 3 19.57513767563939 14.927844471476803 3.6251931787199783 0 0 0
1876 2 21.160273450786494 14.158263973345607 3.4688759295933664 0 0 0
1966 3 20.634261667363152 14.581769059621125 1.3771056468254108 0 0 0
412 1 23.42257396837768 13.991208960070988 1.2170739322064192 0 0 0
463 2 23.173323179792213 11.473171436004023 65.1526145093151 0 0 -1
465 2 23.43354615375532 11.76132280351942 3.1630482612208435 0 0 0
567 3 22.281782971278645 13.280377643655253 2.45380908913821 0 0 0
613 3 23.12306470011133 11.16201829987361 1.4438161538497258 0 0 0
409 1 25.55392201015068 11.990600596745908 1.1183350663049723 0 0 0
618 3 24.97825583388811 12.741017178678295 2.658298250351163 0 0 0
624 3 24.38808466017792 12.999081798974068 65.69915793540164 0 0 -1
1894 2 25.901971162422512 14.004672109765076 3.428889544978428 0 0 0
2020 3 25.22897330571041 14.788075411489231 1.5138377033688566 0 0 0
619 3 26.93794722604498 13.474249510791605 0.34785142727925294 0 0 0
621 3 27.45903338603271 13.216387329144625 3.22625110993307 0 0 0
736 1 28.40158939627095 13.968474132669694 1.6658968053002825 0 0 0
787 2 27.78627104261695 11.921925077950704 65.53770665242466 0 0 -1
789 2 28.199640018560682 11.706993379015511 3.5611273201488354 0 0 0
865 3 27.56194047386319 11.543853810931513 1.2689051390763897 0 0 0
870 3 29.70688137591129 12.530615282737779 2.9233487157405307 0 0 0
876 3 29.446208030248787 12.40835588782156 0.33963284248751385 0 0 0
733 1 30.86234333255234 12.046740352757793 1.7036751420544496 0 0 0
754 1 32.998700275988895 14.200751560606681 1.6025464664569717 0 0 0
807 2 32.90886527633265 11.608939873684463 3.3705753346414853 0 0 0
871 3 31.80384716422389 12.886179355520182 65.99723621259686 0 0 -1
873 3 31.97871022905566 13.212771094808396 2.912893383161645 0 0 0
919 3 32.72170589810408 11.155045656395417 1.575580223334077 0 0 0
2216 2 30.06679955809084 14.005239666403362 65.733556713228 0 0 -1
2218 2 30.333333778823878 14.271704759346113 3.409775962724365 0 0 0
2272 3 30.139683774162233 14.482244957943582 1.834384984006038 0 0 0
924 3 34.218280291356955 12.726811972912868 3.225261613785616 0 0 0
930 3 34.01854832497979 12.93807337915429 0.5555246375817373 0 0 0
751 1 34.85414105401406 11.692669773595812 1.5464002166263098 0 0 0
925 3 36.364001156990795 12.913236448366808 65.76797132641063 0 0 -1
927 3 36.736019602124145 13.299380437906551 3.075655447497531 0 0 0
2234 2 35.22653992656691 14.144932674582773 65.56196174051622 0 0 -1
2236 2 34.936106764500536 14.218491049408025 3.4876895866558173 0 0 0
2326 3 34.79145490364565 14.696098195374121 1.7280834647827912 0 0 0
772 1 37.17336907480147 13.984040442127473 1.6176797944330832 0 0 0
823 2 37.58494578368268 12.176514269597213 65.68074033991353 0 0 -1
825 2 37.172755491693586 11.739005309417122 3.34331165502474 0 0 0
973 3 37.52383112391174 12.004189266005683 1.4731069942514454 0 0 0
769 1 39.557615285543264 11.767765251940851 1.6144254468259678 0 0 0
978 3 38.84777966818761 12.67709019674086 3.255588813115383 0 0 0