LAMMPS data file via write_data, version 2 Aug 2023, timestep = 5200, units = metal

360 atoms
4 atom types

-0.8951301594042818 14.905130159404269 xlo xhi
-0.8951301594042818 14.905130159404269 ylo yhi
-0.8484888306130767 14.128488830613012 zlo zhi

Masses

1 24.305
2 28.0855
3 15.9994
4 4.002602

Atoms # atomic

1 1 1.499967395566237 0.5036168764918767 1.943131010832968 0 0 0
112 3 2.3086408455008844 -0.7979284320054195 0.2746879543374736 0 0 0
118 3 0.28233726251792124 2.6228877661408614 2.194936335356558 0 0 0
163 3 2.7273524500231914 1.73613334782796 2.637448622967902 0 0 0
55 2 0.2029423915702282 0.43669374970739994 13.965364025743318 0 0 -1
223 3 0.8959974805115891 2.497713445083238 -0.3514249796194097 1 0 0
167 3 5.001470486538968 -0.6456947502943101 0.20054628727454094 0 0 0
312 4 5.258575247062975 3.3540751626934497 3.9422868095954184 0 0 1
73 2 3.869590550146695 0.20239992747561697 -0.5284556645057824 0 0 0
19 1 6.180010434463727 1.0794675561188438 0.865802550032535 0 0 0
172 3 6.596434395999344 -0.4702446687146719 2.9504500911884923 0 0 0
93 2 9.971057393627811 2.222193653429971 2.971536326676809 0 0 0
215 3 8.823740325756903 1.6072745899558432 1.0375060896875146 0 1 1
343 4 8.714687265065141 1.7551673053731314 0.14656622399152253 0 1 1
52 1 10.768043173173691 -0.14945392700271765 2.2261014112397772 0 1 0
113 3 -0.46192386736989094 0.3138137888414898 0.662673282269417 0 0 0
37 1 13.033042317318511 1.243654884197284 0.5379128595055103 0 0 0
226 3 13.320142962555167 1.5465760312026928 2.727401917969002 0 0 0
259 3 12.43706810640704 -0.5234790898311246 1.182381486057431 0 1 0
4 1 -0.3138898646342787 3.788027096902324 0.3436070218787515 0 0 0
130 3 2.195661443285224 6.6713910415383255 3.537393280427156 0 0 0
7 1 0.7969069038228469 6.009129613146904 1.362707927371388 0 0 0
22 1 2.3373914181337314 2.571755051008256 0.8768150345744423 0 0 0
127 3 14.889435597765186 5.492372055568387 0.26366784634913265 -1 0 0
309 4 3.361914731066462 5.039485002716216 0.1417190226436511 0 0 1
168 3 5.586284200714165 2.1408969818926096 2.5450697028876523 0 0 0
181 3 6.140958093770781 5.280217822144335 12.939208449605609 0 0 -1
110 3 5.198701926433068 7.535857746910535 1.1548911668475257 0 0 0
91 2 6.270768324606457 6.66353728363812 0.5638348340738086 0 0 0
272 4 6.873950286795482 4.0315437393184945 0.2403810357334446 0 0 1
217 3 10.982790466129721 3.5009043449766333 3.495959026500177 0 0 0
171 3 8.694941585877212 3.8264456493623227 2.372854080873929 0 0 0
184 3 7.544473931060628 6.088383847204744 1.4083226844323913 0 0 0
25 1 8.033592728939864 7.651360579067235 2.562808095213357 0 0 0
40 1 9.543780734068216 4.539605803798659 0.734007137271917 0 0 0
235 3 9.97176166321737 6.403380972338153 0.23714634686457203 0 0 0
311 4 7.372181526904765 3.8398965421650617 1.2152565361508025 0 0 1
179 3 6.499119299670266 3.4303052671255347 0.7122758551046238 0 0 1
246 3 11.295965888527832 3.328257648185666 -0.09780723615696962 0 0 0
109 3 11.551518958295855 5.538090293875226 1.9820094392051146 -1 0 0
228 3 13.78598905336138 3.1109769096167508 -0.19931590901561325 0 0 0
238 3 11.874519712646606 5.801179976749652 -0.8450866242136683 0 0 0
43 1 13.217532661476357 6.092041803636412 0.8807865697149699 0 0 0
319 4 11.641687973841105 4.71286902646076 1.2358950216126647 0 0 1
98 2 12.83813402155477 4.222374442546331 13.88430466519189 0 0 -1
131 3 0.9985145330440692 8.393704881862254 2.5123565066470555 0 0 0
244 3 0.6381388024205035 9.041098710374987 0.2318403550101722 1 0 0
133 3 2.9844560882037303 9.329864164070283 1.3124667494757172 0 0 0
70 2 0.9526465333607745 10.1036379551072 1.878272409424544 0 0 0
143 3 1.743249075413797 7.228408342619799 -0.23344688689061988 0 0 1
81 2 5.313941932986356 8.677571584586845 -0.12999303041050458 0 0 0
186 3 5.527503756437139 9.650152883430572 1.2765061006802245 0 0 0
88 2 6.275901582204609 9.345307888574414 2.685070331025844 0 0 0
169 3 6.478598732447972 7.3903494042928575 -0.758713569822949 0 0 0
203 3 7.629117383940562 9.966338739953988 2.058011471437293 0 0 0
202 3 8.053217733668246 9.120226960440633 13.54799338857125 0 0 -1
46 1 9.477035516327442 10.073711768774691 13.99604359970557 0 0 -1
183 3 10.060036026913235 8.49274039639655 1.9657322334255518 0 0 0
326 4 8.58748668286609 6.128354206750032 0.6195789378338639 0 1 1
99 2 11.124288806490176 7.809114016856137 0.8737695485965982 0 0 0
106 2 13.014010460270285 10.17868613481021 2.8963217850960468 0 0 0
240 3 12.703384840359986 7.781439801678154 0.4473737343638713 0 0 0
243 3 12.762411744137792 11.11710385274893 1.5724046827694669 0 0 0
10 1 14.596454034281802 9.545547984484884 0.07086836142890751 -1 0 0
149 3 -0.16044053908374822 11.005901712150607 1.2648448180699146 0 0 0
13 1 14.7269080895919 13.404207877074771 13.622560471624482 -1 0 -1
255 3 -0.5900984590268552 13.07635253428973 2.5076391198992916 1 0 0
156 3 1.5255290499091845 12.246396344753839 -0.39056815237543135 0 0 0
153 3 2.5579204570587715 14.65284534273888 3.7182525360221073 0 0 0
34 1 4.075074333175663 14.604104781570278 1.8636043642740021 0 0 0
154 3 3.7741673633723263 12.105809260208243 1.8131811836435525 0 0 0
210 3 6.251439738157711 13.066606811799094 1.2090355455815818 0 0 0
31 1 7.638854455422898 11.61262470224649 0.890854237779517 0 0 0
258 3 3.9760060029418156 13.311168845993747 -0.17202021215209418 0 0 0
14 1 4.003605848728413 11.035853293178297 0.3868239667982354 0 0 0
103 2 5.650379059417659 12.869703181631934 -0.37844456490338046 0 0 0
166 3 10.056945225694097 -0.8587588458710196 13.947843960939602 0 0 -1
208 3 10.533095570182693 13.21489174987758 2.244302194503693 0 0 0
76 2 7.481466591848747 14.367926930933447 1.9167632557253365 0 -1 0
207 3 7.58503418144735 13.128974377830469 3.250671964726565 0 0 0
105 2 9.117218085325675 12.74173093135426 3.127486073866036 0 0 0
271 4 10.984128047666118 -0.5575924325832768 13.979864495670155 0 1 0
267 3 5.614700235251671 11.164767200540492 -0.6562660119925255 0 0 1
16 1 14.464139073500291 -0.8368495341382609 1.9416773961581262 -1 1 0
145 3 13.592289515903646 12.635400958971648 0.26683759645628236 -1 0 0
69 2 14.326302472724997 11.981732209163999 1.8560513652466009 -1 0 0
49 1 11.996708477773664 13.193099866740438 0.7644639653693794 0 0 0
58 2 1.457693212819533 -0.18902743374651598 4.812308150469921 0 0 0
150 3 -0.4335506127714364 -0.3997180970714763 4.433528822024638 0 1 0
3 1 5.3055627263126 3.459446819453774 5.776085966480799 0 0 0
119 3 0.7876400740362886 2.1400594850303993 7.298900494789034 0 0 0
219 3 1.7342026856921295 1.002832799313394 5.822747122861175 1 0 0
323 4 2.755846304280924 1.3016705485400295 5.481809274342626 1 0 0
274 4 -0.4543691574626148 0.7683178136346407 5.021507728718456 0 0 0
75 2 4.476444985332818 1.1019109687556634 2.9664269378300165 0 0 0
21 1 6.769164311291715 1.6125355701130863 3.92303042891849 0 0 0
111 3 4.430929857485876 0.7578631128887576 4.699437965430307 0 0 0
180 3 3.9096939378444633 1.8133044784041936 7.186453899287082 0 0 0
222 3 11.866066983272795 2.840872562247687 5.695544352085834 0 0 0
178 3 8.109869075852535 0.5539680875606237 6.225839362003398 0 0 0
165 3 8.762640282267984 1.5971282392437534 3.725973463955336 0 0 0
227 3 10.50804607898696 0.3136313340671366 6.305213266520182 0 0 0
84 2 7.8166740994620785 2.0753904242067804 6.0534377053946455 0 0 0
20 1 8.902376405864725 -0.28757611685071527 4.722935157079075 0 0 0
57 2 14.749178818863353 2.9517399948313865 2.767963475575348 -1 0 0
221 3 11.10557198444622 1.0725466368883367 3.683803720894666 0 0 0
94 2 12.699576504838506 0.37319177536362513 3.7374729161493265 0 0 0
39 1 13.239588408310949 3.495248592527145 6.687018884121801 0 0 0
268 3 13.413152529791809 0.9195801349977271 5.11157099352147 0 1 0
114 3 0.7117058121138944 4.199691720168693 4.886164426849788 0 0 0
64 2 1.4222224234858158 5.354824107839876 4.010356555858437 0 0 0
59 2 0.8166744972225055 3.413952397918769 6.239760669120228 0 0 0
126 3 2.285646721488538 3.449659100392984 6.233365786953799 0 0 0
124 3 3.4463937262206086 5.880379613826595 6.275692207013677 0 0 0
117 3 3.8430427906409763 4.41131339602571 4.42282949828899 0 0 0
185 3 6.013012551787254 4.955446764710728 3.0843636873778064 0 0 0
82 2 7.5794046085650475 4.404022146629441 3.4758364784542266 0 0 0
164 3 7.455011762441412 3.2217573537529587 4.623772722874632 0 0 0
8 1 4.810142474956369 6.122111083632083 4.200978559631042 0 0 0
297 4 5.601364051425992 5.785001082066557 8.99460889143392 0 0 0
191 3 4.909142711212473 4.12401301851877 8.368164848988238 0 0 0
190 3 8.22042699712993 6.025634996137665 3.813059556535788 0 0 0
26 1 10.555860523209171 4.040994186724898 5.313111807467418 0 0 0
27 1 6.876457074822651 7.45814069747771 5.203998035428659 0 0 0
100 2 11.989004132498923 4.670215947768667 3.1758026197571745 0 0 0
239 3 12.175169512802299 6.00250809781324 4.547729435421608 0 0 0
237 3 14.236789571404355 7.039272120845536 2.363457265365084 0 0 0
225 3 13.712769487902664 4.4949825093910105 3.383416182329271 0 0 0
44 1 14.582642314042841 6.17849712177318 4.83934704980856 0 0 0
218 3 -0.8109511336074743 4.201078049721272 6.702193860679477 1 0 0
45 1 11.007538642512811 7.831597236340292 3.8753310878797125 0 0 0
132 3 2.1132322046366583 11.192333142840317 2.833852064538286 0 0 0
9 1 2.442182597617714 8.542395500713884 3.8819028370279014 0 0 0
242 3 -0.8226047707094151 7.842465882510007 4.8390867344744475 1 0 0
142 3 3.9933510204277605 9.068803099123727 7.171384179578316 0 0 0
189 3 6.262065226782372 7.725280420452188 3.0768905605303782 0 0 0
139 3 3.734714134317117 9.607200161059756 4.872414699916531 0 0 0
83 2 5.327757564661073 9.761060577660865 6.00174112924963 0 0 0
129 3 5.366611852571903 11.29729796786583 6.404863428585699 0 0 0
182 3 6.098577179908059 10.285141321831095 4.254194781549259 0 0 0
32 1 9.558316298833912 10.121137435411896 2.711601623403976 0 0 0
90 2 7.950241193018606 10.139727728503825 5.384018136239844 0 0 0
252 3 8.466688476348665 8.76438323213535 3.811266848562277 0 0 0
263 3 10.009120442817089 9.882993295324178 6.956630558682773 0 0 0
206 3 6.543511224672358 9.026637622068725 5.867208361778844 0 0 0
63 2 -0.6521195114123078 8.280186595793955 3.249713379419645 0 0 0
257 3 11.740356778562347 9.71164147755469 3.6468890941211 0 0 0
50 1 14.710266815433613 8.771007367763271 6.378127293277357 0 0 0
236 3 14.38717029759591 9.269672949800592 2.3135987222183405 0 0 0
250 3 12.788266211017056 9.139078735686375 6.318336177505355 0 0 0
146 3 2.1770770373180794 12.594270167975232 5.140471269458931 0 0 0
38 1 13.591679026926496 12.947202308365561 4.879505409893603 0 -1 0
136 3 1.5099052844588816 10.785814989865296 6.815109950895681 0 0 0
15 1 0.589841201987328 12.499767734321015 4.100112379352366 0 0 0
2 1 3.8482341637383524 14.247026468393535 4.888980224818877 0 -1 0
87 2 3.61373076389798 11.505700523680705 3.2244017452089926 0 0 0
204 3 4.570869978193017 12.94447656403881 3.7789390402734098 0 0 0
89 2 3.74567924130798 12.108539225574862 6.023392707161767 0 0 0
33 1 6.006372634830695 12.17330741832835 4.680486117962372 0 0 0
216 3 6.554841006836018 13.636065273601194 5.784442833254609 0 0 0
220 3 9.51046430164313 13.743539213290301 4.2531592785635075 0 -1 0
200 3 8.982467202823644 14.411352858854082 1.116000962634019 0 0 0
152 3 8.192446515421004 11.33393225874684 6.264847656676826 0 0 0
107 2 9.613618184663505 11.623107837983936 7.002860505960994 0 0 0
201 3 9.740151393676328 11.44648585420943 4.209842722048459 0 0 0
270 3 10.927271499705778 12.292471572857325 6.277399075260888 0 0 0
262 3 14.123186445588354 11.047611844184786 3.6628356528091244 0 0 0
254 3 12.728093517949464 14.491425935237968 3.421171192764162 0 0 0
121 3 12.503482500482596 14.595820105880394 5.857407525140175 -1 -1 0
51 1 10.949334590594857 12.838454192076208 4.483426830548597 0 0 0
260 3 -0.535001414171327 12.740454745190808 5.671695705803822 1 0 0
5 1 1.567817008537058 2.3527722197589456 9.273811141385972 0 0 0
36 1 2.7477669345073417 -0.3317723635681121 10.160791891449577 0 1 0
116 3 3.6438303728633983 14.510592007720904 6.538060659543791 0 -1 0
175 3 3.098683495323643 1.2432060737676633 8.861864975698714 0 0 0
77 2 3.6528070220976154 0.255304413552476 7.507809366412452 0 0 0
173 3 5.635868301918077 -0.23482426582406968 7.117249548762969 0 0 0
296 4 6.476641328372678 1.803681181616422 8.21149500863912 0 0 0
195 3 5.882252180237085 2.3404911952694647 9.64344477420843 0 0 0
284 4 5.415151693050764 0.4863966995765572 7.5745159512756 0 0 0
170 3 8.428700767812023 0.9125436416296 8.913540532937667 0 0 0
95 2 10.822131953865949 1.8243100541614963 6.836655765329502 0 0 0
234 3 10.822401660848914 1.882029609223327 8.446338649088377 0 0 0
78 2 9.032722273314858 -0.06658578670810122 7.480368303681681 0 0 0
23 1 6.9300903927419615 2.361223456440259 11.535823314476946 0 0 0
282 4 11.634674094324255 14.747683853217167 9.285615811004845 -1 -1 0
42 1 10.316391147509806 2.994685868526911 9.860322955935018 0 0 0
224 3 13.682331043737372 1.3362849948331599 7.393507604566569 0 0 0
96 2 13.55091566665038 -0.31796338793191037 7.085754573973088 0 0 0
358 4 14.184251282546303 3.2839994924053553 9.905259873094215 0 0 0
321 4 14.7397996620752 13.836713059780676 7.997417574844871 -1 -1 0
348 4 0.34898964998541215 1.5190020500999273 7.1960681395144945 0 0 0
230 3 13.770962036628447 14.433319585820326 8.153828374197683 0 -1 0
337 4 14.750507051541197 1.0897811971922424 8.084392548057249 0 0 0
66 2 2.1853154808747215 5.465478171797672 7.278488909111612 0 0 0
137 3 0.7182950203795082 5.918662478513298 6.682184410343595 0 0 0
123 3 1.0762596754818703 4.449285411178614 8.657738953179823 0 0 0
11 1 1.3665688264293903 5.196207381655477 10.312569780916458 0 0 0
353 4 2.5727118630291046 6.297027606483989 5.274963487684651 0 0 0
339 4 5.5678091060769574 6.402009254953345 10.764553126727193 0 -1 0
140 3 4.931041507639304 6.185106787255384 10.241317296320128 0 0 0
305 4 3.433464045556491 4.916258864098247 10.238000525646596 0 0 0
194 3 6.5849200016512945 2.196500806366798 6.978606552982285 0 0 0
279 4 6.772339970458046 3.6905828535786505 11.414026947603105 0 0 0
278 4 5.43129485071428 4.231092799705255 10.646811173241698 0 0 0
308 4 6.242274502830042 3.180570672031263 9.205557315114747 0 0 0
325 4 4.578587326269336 4.884271686295202 8.693779444241034 0 0 0
188 3 9.344533891711157 2.927064510931386 6.110517184464735 0 0 0
196 3 8.95965651177785 4.835718223878127 7.081974768045608 0 0 0
275 4 8.752698660671138 5.310539303536113 6.145601108344308 0 1 0
144 3 14.793798733110718 5.833916281716356 10.460298006357993 -1 0 0
41 1 14.667221176987246 4.437297782410951 8.66919540604365 0 0 0
102 2 9.799892795176739 5.900916813217999 8.022560502397532 0 0 0
245 3 11.607764852409954 5.107577308006057 7.732473381431452 0 0 0
247 3 9.787179309079946 4.867755208847584 9.79538909296953 0 0 0
276 4 12.650020157801464 4.1828781470198315 11.550436577637743 -1 0 0
338 4 13.896357403869448 6.367824899751124 10.295176319643472 0 0 0
352 4 11.265338066273488 6.6713014206586285 9.984565579542027 0 0 0
355 4 14.522284141041716 1.4271041873913735 9.569728749701651 0 0 0
277 4 11.91251469210471 5.74271141958546 6.8361233587206796 0 0 0
65 2 0.28662064109043284 6.809092921316805 8.003362612138867 0 0 0
72 2 1.7602434393203983 9.565925311330707 8.051481375291527 0 0 0
155 3 0.7620699238789852 8.334525360427474 7.204430634299596 0 0 0
327 4 2.1800907187289087 6.333478302529538 8.468985472051573 0 0 0
158 3 0.9046672860280354 7.799521747108626 9.39395926686732 0 0 0
209 3 5.422463126575231 8.601058882722029 8.94752677437246 0 0 0
299 4 3.3259038947706365 8.378599783634009 7.707444658406489 0 0 0
211 3 2.734237733205733 9.626286965169703 9.213817156290526 0 0 0
30 1 3.271691724112631 8.065165078070473 10.067543015853447 0 0 0
341 4 5.49326784369571 7.660260424672897 8.276324678136115 0 -1 0
101 2 8.884740281547167 8.38613295616692 7.436098365625519 0 0 0
266 3 8.865361695667342 7.256292659459497 8.671581507128018 0 0 0
342 4 11.094003404411428 9.11470253809013 8.876679799924204 0 -1 0
48 1 7.047198017743197 9.291047747888971 9.347221585202481 0 0 0
232 3 12.561699130028819 8.027411197752071 9.279932370609588 0 0 0
108 2 11.92225861046315 8.56507154390662 7.466417248925882 0 0 0
269 3 11.607204224950427 10.132547310428944 8.846094006743806 0 0 0
47 1 13.0789498355118 9.164152971151175 10.22795754842668 0 0 0
128 3 0.8422383120094608 11.052633656236587 8.918087478493863 0 0 0
122 3 1.9971614374114552 -0.49550138459970006 7.832394693272079 0 0 0
60 2 2.2583217845298047 13.83844039901715 7.528088166532964 0 -1 0
162 3 0.6941532255528091 13.424148876915645 7.710224623597147 0 0 0
71 2 0.886405372715773 12.209321509611003 6.547418213994055 0 0 0
151 3 0.9376494710014451 -0.7532346872065052 10.462491616484327 0 1 -1
17 1 2.7451043305808693 11.392045754745359 10.5114759797523 0 0 0
160 3 3.337420209804434 12.75640805189471 7.552812011131914 0 0 0
294 4 5.0688019699161675 -0.4796990762819088 9.307674932715171 0 1 0
359 4 5.986196749410963 14.518182188384548 6.814548354645712 0 -1 0
147 3 8.979789435273089 12.311259479715188 8.395559314451749 0 0 0
214 3 8.971517123597629 14.190336274512374 7.082622110547219 0 0 0
265 3 10.747174861125316 14.619013828588319 9.075155231821523 0 0 0
306 4 10.223644748527766 14.007713076639154 9.872916063485073 0 0 0
295 4 7.335338929841662 13.571612033693935 6.064648532257407 0 0 0
18 1 11.471615224247719 13.976892812323495 6.922409107080936 -1 0 0
176 3 7.161685900717043 13.997471652768109 9.13623827763206 0 -1 0
289 4 7.054365825160985 -0.8545032086659262 13.282514187735929 0 1 0
53 1 9.426396416318484 11.867088448077803 10.037298429962082 0 0 0
157 3 13.627448000460452 12.025153937394741 7.888290251566678 -1 0 0
74 2 12.943914920835198 11.874972874691931 9.515367814873743 0 -1 -1
317 4 -0.23164895483763093 13.398961027710968 10.896187715772149 1 -1 0
287 4 14.35069615268177 12.45727757305537 8.266909455120894 -1 -1 0
264 3 13.17278954459196 13.073186711235067 10.955154345407479 0 0 -1
357 4 14.582926156365247 0.22987320098210828 10.44073711962245 -1 0 0
120 3 3.008891314084522 1.4163340315475326 11.185392968498322 0 0 -1
159 3 1.6675771121681984 0.49322865780547853 13.272062638177673 0 1 0
340 4 3.1927661535500347 0.8887086431387436 11.975859546377864 0 0 0
356 4 -0.40471265750128793 0.02326511054108449 10.05327284155206 1 0 0
6 1 2.137651689169186 2.573846609107092 12.473640484938928 0 0 0
334 4 5.214299178885638 13.98431049150939 12.585987493254404 0 -1 0
318 4 6.2781019730353735 4.364806343039889 9.216631080701582 0 0 0
115 3 3.2728672184922285 1.9584685491247131 14.030591891916375 0 0 -1
177 3 5.651855044794276 1.7520226158872623 12.739121814658759 0 0 0
347 4 4.52829569460753 1.90296144410746 13.267653098613954 0 1 0
303 4 4.751338438649265 -0.013455110422321503 13.107562090340963 0 0 0
24 1 4.0956156094072735 2.8678033081750263 10.098247652086092 0 0 0
332 4 7.760323874493485 -0.07795160478144547 12.639177060910036 0 1 0
354 4 6.755904775782596 13.703357948175771 13.992863664976289 -1 -1 0
229 3 8.72020602464262 1.7711905353463893 11.459014157440972 0 0 0
54 1 9.754243977337227 1.5697208617371765 12.97788660915421 0 1 0
35 1 9.782763767047715 0.17393126934103775 10.315763023794906 0 1 0
283 4 13.846985669151314 2.8254562105690915 9.437969908407526 0 0 0
92 2 12.481721779347922 -0.37122638381181994 12.137146288162997 0 0 -1
322 4 13.444270013560162 1.2880427306869997 10.790323563710174 0 0 0
320 4 13.322581136110193 1.8281124745391084 11.509908648895118 -1 0 0
288 4 12.452719230767796 -0.4444203435036354 9.933054615031832 -1 0 0
231 3 11.82929365301363 0.6921712911202831 13.719499004996266 0 0 0
304 4 -0.3962408564473615 0.14594220230681643 12.380633042557301 1 0 0
205 3 11.270556738471624 -0.5569324119795174 11.066151642871283 0 1 -1
345 4 -0.6587417990890235 1.8140632854651861 9.65675332944285 0 1 0
286 4 11.167003594427928 6.245267513594039 9.378440922234775 0 0 0
233 3 0.13624614115239586 3.145475675445576 11.793708185277985 1 0 0
307 4 14.684503134942508 1.5841125703883465 11.967439643924756 0 0 0
61 2 -0.30237942106250526 5.819077628338968 13.440211668103666 0 0 -1
125 3 3.0394369206676903 4.21302479617106 0.2849196100308977 0 0 1
134 3 3.818071079682773 6.7221297871117525 11.755457367744231 0 0 0
300 4 6.2240634678577855 5.940213762946209 12.09497091762235 0 0 0
62 2 4.218571271484258 5.102957498533366 12.34532374705469 0 0 -1
273 4 8.418117187288738 4.281732477659573 7.546354390855139 0 0 0
193 3 3.0141924325694642 4.151342236463935 10.96610650916313 0 0 0
350 4 6.632174305852919 7.327665809425158 11.323585878623673 0 0 0
335 4 6.021017456857617 4.473104307271223 10.848731269718902 0 0 0
293 4 5.5898294253983405 3.9563103311864403 7.961814453166696 0 0 0
212 3 7.1187990732515125 4.8369914068185 8.796216215144952 0 0 0
29 1 9.007694710636642 5.0459867233264815 11.911983739421293 0 0 0
251 3 8.986991759123654 6.9971184188288795 12.909230387724085 0 0 0
314 4 13.686654328840222 6.8656782515851384 12.0814552744456 0 1 0
97 2 10.836422002157743 6.999571666657937 13.726816641429759 0 0 -1
248 3 10.5458853905838 3.5620308122822264 12.14477595161933 0 0 0
280 4 14.09578435166243 3.361345963064041 12.60754752517515 0 0 0
346 4 -0.07790929447082873 2.2337576855125514 12.196267709641727 1 0 0
313 4 14.280492962360109 4.515276117266463 13.468326473882218 0 0 0
298 4 13.694743625768147 3.4619026248642264 12.069303957269229 0 0 0
330 4 13.391199844447991 4.39617350411342 11.536962753403342 -1 0 0
310 4 9.412956727563527 6.532656022415639 6.045959623142215 0 0 0
333 4 0.5131814965060002 9.589157097663172 12.152488578822217 0 -1 0
12 1 0.33489017835120105 10.015968477138664 10.323237150321196 0 0 0
331 4 1.088614997941593 6.918209734361002 13.023785156174988 0 0 0
68 2 2.113234319701686 8.84154288698698 -0.2065189483469424 0 0 0
141 3 1.0688117368277557 6.564937463013071 12.065107783894838 0 0 0
199 3 3.2683977102441197 11.93563633870616 12.410948241909441 0 0 -1
135 3 4.088217591496554 8.898679581814562 13.96692684244485 0 0 -1
28 1 7.001208142318501 10.522391935470374 12.860597590482556 0 0 -1
315 4 3.922989265474257 6.604308535897663 12.702522043632134 0 0 0
192 3 7.3741935310191735 6.554154178756772 11.014922407620125 0 0 -1
328 4 12.164832833368653 7.009538286535896 11.69291582759785 0 0 0
344 4 11.707382789707808 7.634586624410861 11.855419282202332 0 0 0
79 2 7.988880513126045 8.061911085140073 12.112604024140433 0 0 -1
213 3 8.037942395676161 9.49705668211192 11.1458131842462 0 0 0
241 3 14.47151711168684 7.296338451056888 12.444254426762495 0 0 -1
197 3 10.986800988033478 8.723754287594 14.004036966148231 0 0 0
336 4 14.080337844878928 6.766425357087889 13.28760525669397 -1 0 0
249 3 11.299389496664645 11.81727745231946 10.462395365659777 0 0 0
256 3 12.825397417869846 10.833380183445867 12.350183087548285 0 0 -1
67 2 14.749204021753735 11.068671637641675 11.899033750899056 -1 0 -1
161 3 14.178399415525103 10.914377442113322 9.94668659079045 -1 0 0
148 3 -0.8600800567802763 11.089470318187892 13.522088187972457 0 0 -1
56 2 2.426266272317188 13.546243045700438 -0.796415909492593 0 -1 0
138 3 0.4804998787502861 14.338839259876474 13.122362354696383 0 0 -1
85 2 1.046391367281149 13.983529225388487 11.746669324961774 0 0 -1
187 3 0.7797256411115652 11.503068449838771 11.72638072174276 0 0 -1
86 2 1.7718845726997339 11.047515357122833 13.166096913724274 0 0 -1
316 4 4.933162424096149 0.30681135586479136 10.81840505501986 1 0 0
324 4 7.16124995206699 -0.7220903341894528 9.20425372834983 0 0 0
360 4 6.9076813675041695 11.345378624155456 10.597170265865843 0 -1 0
302 4 5.903119535990601 -0.46580786561328497 11.105840104399741 0 1 0
285 4 4.784161488896862 -0.4067282726025224 12.458497062708942 0 0 0
349 4 4.544995844295479 14.37608999325424 8.844899334624754 0 -1 0
301 4 5.612527886116846 14.111487747671083 13.807162738839565 0 -1 0
198 3 5.957775953314705 11.154547545980556 10.886682277460858 0 0 0
290 4 3.9014827885156054 13.799404158634783 10.913848488126467 0 0 0
329 4 3.149810311806199 13.948050201111418 12.835036648342816 1 0 0
80 2 9.141379109476537 13.673109292052946 13.446071256574394 0 -1 -1
253 3 8.749552740059102 11.882961383813193 13.356238619657951 0 0 -1
174 3 9.168607941795228 13.70853213995966 11.764734753021195 0 -1 -1
281 4 5.578559939001749 13.364796956480749 12.788952310295116 0 -1 0
291 4 6.628270409137379 14.080937710014114 9.84474408081477 -1 0 0
261 3 11.643413756341554 12.738671086899199 13.418928992606192 0 0 -1
292 4 14.338056237718313 -0.42964453895293536 12.507743089976646 0 1 0
351 4 8.65946346398205 13.707676209972712 10.784285881438116 -1 0 0
104 2 12.207493967677461 12.274037971190928 11.971684079888988 0 0 -1

Velocities

1 13.80153281889539 -12.84227239944056 27.85755395681203
112 -14.995049047532675 -16.307053042904517 -7.96985033117231
118 2.557530245918628 -22.50926483676212 -5.058172942212803
163 -12.655720599850376 6.281018855282212 -23.531183232660304
55 6.603359094764097 -8.400755472931694 -13.264374785463046
223 6.366792832526036 3.6802845125929404 -18.24608682534771
167 -1.377930855485848 16.714620676809666 11.887547563367821
312 -36.05145027017083 6.452858497797927 64.42876082403669
73 -5.85542219747839 -9.877959470131488 8.093780734089384
19 1.339450620693059 -2.6674889739429934 -8.74286508980461
172 -28.69754883716069 -16.38628026714868 -7.733290495560277
93 19.200629728489933 -14.460882735238803 6.432818081770092
215 -3.512874408219437 -19.916368289155088 -10.868914985047898
343 14.219912205494955 -35.1660539144232 -17.86832404870678
52 -15.477248593652991 22.597006802525637 10.68912001339811
113 -24.613373640579635 -1.8184793222819409 11.00363519720532
37 -11.68674346978887 3.5355808984327126 4.9951428320956
226 -9.134740828431744 13.539865579506484 31.87369959431243
259 -0.9160368188664704 -10.300643143506255 11.288285140360705
4 -2.6787486932639664 0.8078977736243219 30.010980431538293
130 26.666566418856412 -4.003463039048058 43.39782234951532
7 9.812489293225527 -3.4529640207469243 -6.569198532009066
22 7.416402020105312 19.40477406348551 18.566029387727852
127 12.24079897818771 13.030589350861648 -26.533149052089705
309 22.629627620760076 36.05397229219478 -1.699338626517149
168 9.045731086146631 -3.217238434573347 13.561269781872817
181 25.2427563223035 12.830754545487546 -0.3322889217002928
110 15.438082057402736 20.950112204260833 12.385461394275687
91 -9.428249161294419 -1.001797432063524 -23.04441219863653
272 40.114894797351496 18.500790945401587 -17.987674284855352
217 -12.94845623708478 17.524944501900283 -9.469779533409376
171 33.0794645434365 1.8816105922758009 24.15834992720437
184 -9.176622225938337 10.107460373649678 -3.977038581869386
25 6.696719270823058 2.7977928020181286 -8.594045921328386
40 -0.887373767050599 4.802923756080917 0.3946001819382784
235 11.145236384932554 13.338181873657035 7.299786765130158
311 3.17763396511872 2.4188978262336356 2.2013265072534356
179 -16.217786403878677 -1.6469937921248552 4.826949675213261
246 10.488517943837806 15.617396835109025 7.899667041084832
109 -33.978214589018805 19.555324464465446 1.0362992975910972
228 -13.469268252911135 5.591631472311508 -12.181801569839315
238 -13.800976370310845 -17.596668587704478 -1.8977827142019559
43 -6.9313024255775435 6.953898454882374 7.987795217813968
319 -21.808944715932068 14.942412249756057 6.815597343941964
98 18.26196695021666 7.53620869979833 -16.70824518873722
131 -18.90051228519265 16.946207193769666 0.5399934183951384
244 -0.4445364799832404 20.255884311315317 3.052179054710554
133 -7.863118888657901 29.96748447269544 16.17516935800497
70 -8.621128195186854 6.170881633067829 -2.4784397853835984
143 -14.569139421508094 3.3294426450909085 17.930130624335842
81 -3.9058375931692835 6.7510870159278245 -8.5052650808815
186 -4.6074229025325195 -14.156022850194443 -24.32645760879998
88 22.9918070901641 11.234801757023236 0.8288989998357493
169 -2.0560265122194537 -15.21428765934338 23.49407012723702
203 0.5650423438087723 13.219111082365735 -12.18479846330077
202 -17.47985647103008 7.596891671500236 12.00004681098277
46 1.8326570391395396 4.448969242089606 -18.591510214580044
183 15.532289671332538 -11.744309437379073 -15.151778054715468
326 -50.70989660459625 37.137420525344986 -12.99418678469368
99 -6.585310110199819 4.515416762268293 -3.183815367143143
106 -6.159972063944928 10.21528823027408 9.923009990304266
240 -18.768084969755428 -6.266121607103813 -5.264947490922254
243 -15.125657048639065 -29.337676206803486 8.144056691915392
10 13.684080138176329 0.2440301009537714 -10.094324282515233
149 12.682584858131836 -18.5166837252645 18.542500528894426
13 -14.943236555106145 4.985682685477613 -19.802501920154153
255 1.7178266565789921 -12.639840626439568 3.489526578155611
156 3.3682725658831343 -29.791794894188858 -18.26098071654406
153 -19.126780548365506 -10.750381638473742 17.79486419805934
34 -14.9171882220942 -9.698671044707895 2.9776799310284394
154 -14.481680867137019 35.86345316314443 -3.5837763387206394
210 20.53902836838369 -10.427459170125108 7.936729427338089
31 0.3160717550885959 15.681695789394027 -14.69986515495269
258 24.761216043028206 -1.4505061782292288 11.54573529538909
14 2.699805844746531 -9.859193035375798 -6.557203245214573
103 -8.07911257759054 2.214391686461412 -12.95925770823344
166 9.617115655279683 26.989661770950637 13.57502927317032
208 8.44709381787594 9.518076814745758 -12.132192984214567
76 1.3102549685735718 11.5629387195091 20.29010345883051
207 21.29614400421482 -3.0255521538830368 -15.382019477010372
105 -18.855567524296866 0.5105852639050538 0.837262741480849
271 50.02153020146614 34.054580108939014 -18.351025895981447
267 14.968035318997659 11.651713687826302 -4.124048878586736
16 11.758336901669692 3.268344211739101 7.589603040189003
145 27.68327591310319 -0.7701863814275434 -25.319315081692718
69 5.5123950364619025 1.9439755049489182 -15.296938311522853
49 -9.078225827111098 -11.183629967636799 4.481045655383089
58 -15.001842982111448 15.641766348171648 -1.7555565992140332