LAMMPS data file via write_data, version 2 Aug 2023, timestep = 5200, units = metal

360 atoms
4 atom types

0.3934051121620836 13.616594887837927 xlo xhi
0.3934051121620836 13.616594887837927 ylo yhi
0.37290648747413346 12.9070935125259 zlo zhi

Masses

1 24.305
2 28.0855
3 15.9994
4 4.002602

Atoms # atomic/kk

236 3 1.0491327401650583 13.536645386136845 2.4671399083219305 0 -2 1
91 2 11.915000087912524 5.1696418672140085 11.703212866333399 -2 0 -2
217 3 2.858880043754685 2.1845754116017897 3.7182960731806673 0 -1 -1
62 2 4.077389877853921 3.4731569058833007 2.0031925411569507 1 0 1
307 4 13.25292707559705 12.871247930123772 11.682961570475669 -2 -2 -2
143 3 3.103382703749043 0.5507821922599867 2.4338242895405835 0 0 1
133 3 5.680129243543002 5.7141628396486635 6.491982508129626 -1 1 2
141 3 12.854344078425493 4.5253720915380695 5.558085568926499 -2 0 0
340 4 12.123780003906719 4.472465169054242 5.330056692056124 0 1 -1
103 2 12.525311074450727 2.286033237879699 2.475882816123078 -1 2 -1
60 2 2.0358950190815595 12.69355266929022 1.2418287983549032 0 -1 1
132 3 1.4330953399870932 11.906403344830567 1.7584440290767935 -1 -2 0
241 3 4.38958566927014 4.239157775070159 5.605146659127525 1 1 0
171 3 6.0656001346502935 3.7291413345816053 0.9963926743062188 -1 -1 0
72 2 1.8322812512195115 2.199424529400163 12.084933667129711 -1 1 -1
252 3 5.115409282531122 3.2830359301471557 12.539286360843573 0 -1 -1
160 3 2.714344834415373 1.2193457471959 1.4527687497679849 -1 1 -2
356 4 13.236266653929647 6.487971544381651 1.2362761040544676 -4 -1 -1
256 3 4.4464183578496295 13.474798457908413 0.543667350749367 1 -1 0
73 2 3.4406416086853464 1.4875817561118987 3.6433613412881636 1 1 1
204 3 6.164539413769475 4.106991334074628 4.519866508850917 -1 0 0
117 3 9.347670453080708 13.104744901807107 1.3397282659957515 0 -2 -1
23 1 6.882035503973939 2.262784306971402 12.022679959516665 0 0 0
19 1 6.245785818071704 12.610612908047617 3.5388428570112294 1 0 0
71 2 6.295081010935316 2.1777164324091016 6.323692597211747 -2 1 2
327 4 9.78253244303641 12.386609806390442 4.787110166196461 2 1 0
113 3 6.141490280169701 5.350056382068271 3.858712466968476 -1 -1 2
357 4 8.05066698616093 4.606794110330883 2.9311381462349644 1 1 2
313 4 9.892065003163086 1.7435935425979485 3.13143987973704 1 0 2
269 3 4.41447550620741 3.393782232158407 12.48892410331639 0 0 0
8 1 8.734162890495424 1.498205873533205 1.9487119395701638 1 2 0
118 3 9.280196482519926 2.031297093769485 2.9060226502200672 -2 -1 0
21 1 7.834983919368521 5.66016180477015 4.558958853672017 0 -1 0
174 3 4.945400123592552 0.49642526171744145 11.480784338885986 0 -1 -3
22 1 12.258966650061584 0.9035313365823763 5.1966722016452165 0 0 0
31 1 12.296387078626362 12.383593784391573 12.395134234195103 1 0 -1
64 2 0.7863005972918249 2.991615418305092 2.6037886370176113 0 1 0
49 1 10.85541530205632 5.267027507428211 2.1768733322754756 0 1 0
33 1 1.179131912049169 4.010859631868756 5.967264752829273 1 1 0
202 3 11.28343637562763 8.669273425217328 0.4928179422041053 -1 0 0
39 1 9.954270655943816 1.3490522727146899 4.752805913675576 0 0 0
276 4 13.231041624747773 1.43822873972015 4.07858513466891 1 1 1
5 1 10.871210589838656 1.3831754055922847 3.7904998545738784 -1 0 1
46 1 12.406516934460232 13.36830573180863 4.7901874169467415 0 0 0
24 1 9.555978004867539 2.3991793831137556 3.99446877030261 -1 -1 2
312 4 13.164273950991548 6.018222497078566 3.8726581770752238 -1 3 1
218 3 1.2922184502896052 4.561292751348582 4.771354041687315 0 0 1
193 3 3.276234759678067 4.968824956722411 2.3230495007881 0 -1 0
144 3 3.7481358518806602 4.895552522034968 3.210384439956435 -1 -1 0
29 1 12.583362003182573 6.122460084164433 1.9382870638740903 -1 -1 0
105 2 3.4792098696969993 7.1267689452861545 4.308673103732412 0 0 0
138 3 1.1446054229788496 10.466109290259386 2.1825276149718738 -1 2 0
311 4 2.3984263395934535 9.092774492038172 1.396690686160351 0 3 1
201 3 1.8169131072358713 5.3807925883928664 4.177520439667317 3 1 1
154 3 4.660083349318839 8.36824739702897 2.116302984169565 0 1 0
180 3 1.7618708039454476 7.094059030026503 3.5938019535448875 0 0 1
299 4 11.999659492951459 11.932613885366967 1.0796897120525495 -1 0 0
74 2 5.581688181033425 9.240295527140999 12.825612059331526 0 0 -1
66 2 3.6731600591201405 6.504637234327698 12.530569331820194 0 0 0
52 1 2.1587522785250517 4.244769174615234 2.5052300368423315 1 0 0
320 4 13.601369036725977 9.850902736619899 2.538225529768798 0 1 1
229 3 1.9545352957281807 9.060870572014727 3.566870454968347 0 -1 1
116 3 4.3607931060032605 7.96164924466719 3.1736398019476497 0 -1 0
150 3 3.263681279896345 9.847128010900374 0.915044168329088 0 0 0
77 2 0.49718249046303964 8.778042033047711 1.5286658645394906 0 0 1
185 3 4.90729464782122 8.131634987195348 10.4680947378617 0 -1 -2
246 3 6.115841318135328 13.309664853235967 2.103180810011743 2 0 -1
199 3 3.8446263227099493 6.145612624448228 3.0844576159622514 -1 0 -1
225 3 3.857703869081632 4.855239294445866 0.8209766512732173 0 -1 0
323 4 2.9258910880343074 13.605221497630906 6.05332378836265 0 -3 0
10 1 8.099700331835336 5.588643047135825 3.53887577938914 0 1 0
53 1 7.236695732054926 8.98548109478887 2.1229382840711404 0 1 2
96 2 7.698626231115435 5.10419458919229 3.1582834728050373 1 0 1
69 2 5.871870928328261 7.6987850877581545 2.3163581889362335 0 0 1
108 2 4.522592944084346 6.089430989921894 3.411157966417886 1 0 -1
270 3 8.312949570123777 6.810987734601823 4.820031451807422 1 -1 1
274 4 12.750106300128246 8.801867382761051 9.291328780943394 -1 -2 -2
244 3 10.490880334908395 8.521754089219787 1.615046852542901 -1 0 -3
83 2 8.48989869591176 5.218473672715886 3.3240351394537058 1 0 2
211 3 7.0497643691484315 5.4406973263013825 1.2635396558754919 -1 -2 0
57 2 8.348359405438604 10.164149753576405 2.2059074174737687 -1 0 1
303 4 2.560434120900447 10.230151502928122 12.330189509625171 -2 3 -3
262 3 7.350972064990917 7.014774691129855 2.584878051061424 0 0 0
317 4 10.811481087166065 5.711905386814014 2.554208390592374 1 1 0
80 2 9.46140362243632 6.362072529774444 4.562898363446697 1 -1 -1
321 4 5.725281745366144 9.119915911841897 9.169322923060477 0 1 5
134 3 5.120874703118647 8.18437996733854 3.717657961234085 -1 -1 0
242 3 4.918147786777653 3.6820649069633102 3.3297320003207367 0 0 0
122 3 12.696028712741372 4.731724669236985 3.197230358722317 -1 -1 2
325 4 10.809992778329121 5.788732416842843 0.5899268700214383 0 2 0
297 4 7.732115879871488 6.491004210854277 3.65517028608106 -3 0 0
213 3 10.784737218288706 5.816344962248462 5.4759091826047985 -1 0 1
331 4 12.633344094053937 12.149470846253802 4.70798079017581 -1 0 -1
190 3 11.96205896979764 5.096918603538003 4.373979274688235 1 -2 1
28 1 13.326429543400266 10.639217974606899 2.1265564918217548 1 2 0
6 1 11.138773623594108 6.672724788233506 1.8236131042858057 -1 1 1
43 1 12.729314120766485 6.334556808739078 0.8644031767191516 0 1 0
84 2 8.933099818701416 9.017688955583717 1.3046655698628957 -1 -1 1
182 3 11.822852272686754 4.930471815654229 4.493538423180111 -1 0 -1
309 4 11.628833696666344 5.337290744245638 2.818743465648037 -2 -1 1
124 3 1.698999247579568 5.003323784956603 0.8148479280393323 0 -1 1
177 3 9.806134529594969 7.3630699102773205 1.7486323650121292 -1 0 0
267 3 2.7998314485128057 9.932410590187441 1.719334054308304 1 1 -1
223 3 11.782808250850376 8.011872719620776 5.2615789775096795 0 0 2
188 3 0.6563711990903544 11.450321099664347 2.8474851056126207 0 -1 0
76 2 4.204041584886586 9.93350551350195 4.630284227848939 1 -2 1
206 3 3.2771841420095735 0.638341761884722 0.4645289837319775 -1 1 0
139 3 5.079894375130389 1.244984046593467 3.669456265006512 0 0 -1
63 2 4.274198830683346 10.802463652885827 4.905431013851263 0 0 0
54 1 2.8496100864743132 0.68136975444764 4.345272683968225 3 3 1
305 4 11.685546950471434 8.184191049805182 12.580383182926665 -2 -2 -2
337 4 12.891627465257962 2.801738668217147 2.008785872754911 -2 1 0
250 3 3.0346819346961014 1.5312396714148784 2.6718267412430476 1 1 0
92 2 13.42253444920493 10.273886981658222 4.486866603414818 0 -1 0
212 3 2.414687748833526 10.627569147515938 0.5554104215303012 1 -1 0
283 4 3.1023042689342213 9.270056639346224 0.6808796839757153 -1 -1 0
209 3 2.421257887925806 11.687148239679317 1.2204426880957473 0 -1 -1
251 3 6.362952038962315 12.145337131245078 2.170603288911444 1 -1 1
162 3 3.566001375959547 10.812357378159383 0.6135519782754032 -2 -1 -1
56 2 9.931301282326771 0.76531759093393 2.8535262313834124 0 0 0
50 1 7.080204717415964 13.551980920500753 0.6198112211236084 0 0 1
121 3 9.069787068718622 10.90019334162012 4.243970305704873 0 -1 1
355 4 11.353486111166387 9.338689872899886 12.60257600060543 1 2 -3
282 4 10.211458573873257 7.911256587604624 6.8957726665816965 -7 2 1
126 3 6.977832224751626 9.476405383699163 4.9649978792970835 0 -1 0
131 3 8.992970739737041 12.108942077328093 2.2408472299168523 0 0 0
268 3 9.893134904537563 11.741138921291062 1.5417329922395997 1 -1 1
112 3 10.445849396627493 7.535454322406359 2.7642841086109327 0 -1 0
78 2 6.5583620230838635 11.012798722046906 3.147429491546651 0 -1 1
155 3 2.6133517085217344 9.754075120616866 2.700544195556444 -1 0 0
335 4 6.921873833905241 11.29610255348545 4.669828076996459 2 0 -1
110 3 11.573594555791313 11.490524917801057 1.5446612747066515 0 0 -1
65 2 9.907416918179583 11.67162111244814 3.5405033402578696 0 -1 1
248 3 13.266770020632451 11.525175301981033 5.521906192491988 2 1 1
137 3 12.986800254473804 10.465143741856865 4.856150191906047 0 -2 1
348 4 13.345683756855701 11.364018947678888 3.864695422148806 0 -2 -1
95 2 12.247696529751005 10.547828101526196 1.75265308842505 0 0 1
261 3 12.217762201791624 5.943948824861024 3.183163233922281 0 -1 -1
272 4 12.897418024581963 13.384260276047314 3.0089220635818634 -2 0 1
184 3 11.075465768720443 10.874024054950056 3.3751616741901906 -2 0 -1
38 1 10.275503025419173 8.72704727153032 1.6242546425084552 0 -1 0
332 4 0.6878935414172429 8.302638913981632 1.8804148253044644 1 -3 -1
319 4 3.8161673439992807 0.5520771913256608 3.4454919990891155 2 -2 1
284 4 5.286295282326778 3.2297552946261425 1.1717138259177167 3 1 -2
79 2 3.223353104901103 1.6144876647700372 5.848517575306322 0 0 0
224 3 10.956065568343051 4.532149147486343 5.382047255209237 -2 1 0
61 2 13.274554242599324 1.2663536779941313 3.7269446140031253 -1 0 0
347 4 0.4763083329828217 7.274410899967779 9.614138197450584 0 0 1
161 3 2.4939904322730118 0.8528695145378635 4.326842023849236 0 1 -1
292 4 11.404352014373952 12.275466584794751 6.1186157003510155 -2 0 0
82 2 1.145766486508976 3.717280146712357 8.02254412593152 0 0 1
142 3 4.843440421299336 2.953077575461376 8.723054658002166 1 0 3
4 1 0.7082110297866073 2.498801514359352 9.898328492277892 0 0 0
158 3 6.610243757597848 1.9893780477887297 7.91193346126212 -1 1 -1
129 3 2.450112548852547 1.982647098964965 3.7755263563342876 0 0 -1
42 1 4.021511611137701 2.951107805707094 7.0466204228632625 1 0 1
153 3 3.397814852266625 1.671607203841953 6.101588648774867 0 0 -1
257 3 10.243232832732804 3.6517656127363303 6.619583482260602 1 1 -1
169 3 8.492861970668633 2.259352934175441 8.48782586907649 0 0 -1
228 3 5.955289862345538 1.0587462679421338 5.262875794930173 1 1 -1
67 2 6.005312881683293 3.4224597395247836 7.987819332857569 0 0 0
140 3 12.281432967745753 3.7211844224812096 11.363211352942468 0 -1 0
298 4 5.61807980114617 1.1935280485402862 4.619151790200559 -1 -1 -3
167 3 8.258318178742474 2.822181811978421 4.066998080679128 2 -1 -1
179 3 4.607434974614708 2.8631474443067684 8.98373207062011 0 0 0
198 3 9.116015151758054 1.8766344500795291 7.40313460234095 0 -1 0
288 4 11.037493340598553 0.6502441059425985 10.078139613542923 1 -3 1
215 3 8.2767634589428 2.927337738005336 6.745131929257302 0 1 0
86 2 6.629239085656413 3.020188707638932 5.576801804088495 0 1 0
11 1 6.305635513580332 1.8976367036932906 9.793509115845005 1 1 1
249 3 12.061556922252516 1.0542370182251186 6.679964472273219 -1 1 -1
173 3 11.852800232469827 3.941438910480874 8.33849619935022 0 0 0
232 3 0.41962053522633286 2.733224006918516 6.468904890540748 1 -1 0
55 2 12.798618970476623 2.9500679188701993 7.0835803770491825 0 0 -2
135 3 12.956981798973864 4.9132784796786675 3.787496942114448 -2 0 -2
255 3 3.725439051497441 12.002181060884077 7.99621924978004 3 0 -1
289 4 8.325558983699809 3.3103103867194896 8.167291726366704 0 0 2
195 3 10.907846779369297 1.789488284583072 6.401762500193115 -1 1 0
119 3 13.03483256889265 2.783242119710627 5.138489046881006 0 -1 -1
207 3 9.858560074549318 3.6735536320823767 6.587813318326348 0 1 0
125 3 1.6150050089786134 1.5833349565346453 5.249653880085355 1 0 0
352 4 9.640971645937285 4.837663733376399 3.088090302778865 1 -2 -1
328 4 11.154636269541998 3.8738957155701184 5.451913956770231 2 2 2
290 4 3.1650150324995203 2.7467463693864445 4.219293805971139 1 4 -2
279 4 2.2077729488039735 5.970679242211512 3.240075227617526 1 1 -1
51 1 10.211236114599819 1.9311320608677958 4.141641730747341 1 1 1
343 4 9.910540879588236 7.276778141290318 9.9704497995115 -3 0 -2
27 1 11.566594691318372 12.10794033026821 5.570259945704061 0 -1 0
26 1 0.6837995218045696 6.326991606362645 6.477544736853055 0 0 0
216 3 2.564927629725179 7.058360392887353 8.569019923745971 0 0 1
329 4 0.863016690431824 9.038094275656505 9.077711485185079 -1 0 1
97 2 1.4461692688926118 7.776983666405944 6.264458598092733 0 0 0
176 3 1.6439906910439972 6.632957976874966 5.583699939070716 1 0 0
345 4 2.5710036084187298 0.809767508534421 2.4806688489123387 -2 1 0
40 1 13.208275948771023 7.230090969793658 7.383031783723695 -1 -1 0
304 4 1.2831718211942087 7.537712493882713 9.119157091492609 -2 0 -1
136 3 3.7665786120091784 5.779276865378713 9.66126522811965 1 -2 1
34 1 1.4898347096073332 6.1904781051717555 4.406074021309224 0 2 -1
316 4 2.102230923465492 7.101610469356394 8.161900772279134 1 -1 0
301 4 6.6130624194716185 5.403046606149655 4.6509386189013115 -3 -2 -1
280 4 4.734217840629685 9.7091343112774 3.6822232532291563 2 3 1
7 1 11.191547717169483 5.864222828546391 6.791861131042472 0 0 0
258 3 4.047548477703425 5.738369940620082 7.279688310117708 0 -2 -2
210 3 3.9296787997169376 7.493496738115165 5.3357551813820345 0 0 0
111 3 8.341176605759298 5.9218582408542595 5.407284439669334 0 0 0
310 4 6.3275801755573795 5.533450209951047 3.3832682001783487 -1 -1 1
75 2 4.728866607589655 9.046524307465921 6.43776723013508 0 0 0
293 4 6.5058449792677235 2.611801636426047 7.769627204419448 0 2 1
178 3 7.11863500404426 3.905948193847897 9.015629645249787 0 0 0
341 4 3.1753344324317863 9.782862493232399 2.0952818189579654 0 0 0
25 1 6.3219552763555384 3.700017187405761 7.506978572971518 0 0 0
208 3 6.022218578556903 5.65083175045542 4.966716354038709 -1 0 -1
41 1 6.530026450351572 8.036143221240573 6.242173738453451 1 2 0
48 1 8.37029875975771 6.5301300172032875 6.209729704658564 1 0 0
318 4 9.979061630841935 6.983745064831118 3.6979336269895566 0 0 0
295 4 8.27533458770682 11.988509893336287 4.6309267936604845 0 4 0
159 3 10.149248396181894 5.47276482596476 3.4320660899073236 0 -2 0
186 3 10.558086141258809 9.74915947289559 4.815451547935184 1 1 -2
281 4 7.475127830720682 2.116110770012225 1.429248072754685 0 1 -4
157 3 10.594131702201892 3.9412188264253443 6.900307120996656 -1 -1 1
107 2 10.560754038533677 8.37335258731577 8.38700746468439 0 1 0
106 2 8.62643054928218 6.645569762490131 8.33490027505231 0 0 0
156 3 12.525462920339763 8.88197312754225 7.81665333963487 -1 1 -1
183 3 12.165206541087127 4.463606291563513 4.456335322608319 0 0 0
68 2 10.88076278522985 6.117555889284197 8.995370475651638 -1 2 -1
197 3 11.389176489009149 4.7179106902144845 4.520616878779971 0 0 -1
220 3 12.634872077118057 8.46892204007891 7.2930758102258775 0 -1 0
344 4 1.714049637248231 9.752805302857679 7.198960725147603 -3 1 0
128 3 1.247956669770413 12.712293180765569 6.725898317701269 0 -1 0
286 4 11.311219781813595 11.473640236419467 12.125780591057465 -2 -1 -5
47 1 3.648377226157954 10.783561389241871 5.311388367735327 1 0 0
191 3 13.563143366119208 7.710167816288313 5.74060333401432 -1 -1 0
245 3 3.834275769230633 11.71255011454589 7.836937699877602 1 -1 0
264 3 0.8544271123580562 13.092991964175084 6.39884171839443 1 -2 0
81 2 4.852227116269263 1.3733836091637217 8.273170188059765 1 3 1
354 4 3.3359024987843657 12.911944630120733 6.512274766546013 1 -2 0
90 2 5.478187411432329 10.57166605656606 5.002810165139135 0 0 0
334 4 4.0471719280499405 10.19171799384197 8.468156080425238 0 -2 -1
235 3 0.4656881896956021 0.42670757734142256 5.9742614206789675 0 1 0
149 3 2.6091818080308586 9.078488910489956 6.935672731377232 0 0 -2
330 4 3.4619184567629553 0.48571258671568485 9.685906501097364 0 1 2
259 3 6.730598849695947 9.748775255449548 1.5485688879803874 1 -1 -1
148 3 5.238385340349677 12.128639659340834 9.511157863252617 1 -1 0
36 1 8.043533059477594 11.409448793247673 6.516402040319157 0 1 0
18 1 10.5690710227172 8.591424317516008 7.647489479948326 1 0 0
32 1 4.777957193825252 12.18350482786177 5.330449969922598 0 0 1
44 1 5.821578035308989 10.34080763456003 7.525239780801009 1 0 0
115 3 10.73754304004342 1.27474128564636 3.167983270568717 0 2 -2
123 3 5.452947775334211 12.696513827921649 5.847745231089305 1 -3 -1
287 4 3.6811498133930005 7.825752738853698 0.46622273726075963 0 0 -3
152 3 4.081021271832348 8.926229869278346 5.518345247418419 -1 0 0
271 4 7.752716878218572 11.009898294631963 2.565771165472289 -3 0 -2
239 3 8.650951363987437 9.011436006047525 5.155285381496649 -2 -3 -1
15 1 11.89746634601819 8.469184955154121 9.480271834269214 -1 1 0
20 1 10.738697973248415 11.303118110196522 5.179054374798093 0 1 0
192 3 10.563624701997055 13.156789197701325 8.489310670068656 0 0 -1
146 3 11.311083741106195 13.36801334372824 8.066192539039681 -1 1 0
275 4 8.317076004549818 10.774778375254378 2.5409725719091454 1 3 -4
189 3 11.42574010677407 4.043070431870512 7.699746994858431 0 2 -1
291 4 3.0053569486568343 11.126988957784345 6.238460991446605 1 1 -1
89 2 12.153823092083492 12.686547890273902 6.99963532750553 0 0 1
203 3 12.060258728418964 11.728704181949333 3.42938709914076 -1 -1 -1
308 4 5.31814217265832 4.985984252653244 8.759737431347297 -3 2 0
85 2 0.9044158763304866 10.643477214668039 5.808711535776111 0 0 0
277 4 11.980957388291136 7.0472704898055065 4.430680346193002 -1 1 -2
187 3 5.014733404406176 5.520694961564906 6.610363585986483 1 0 -6
12 1 2.483774535870171 3.785684104343233 9.038044294408941 0 1 0
168 3 2.535080299308258 4.21529717038487 11.148172171976324 1 0 0
172 3 1.5555497219653946 4.231277674088751 1.4973523424385242 0 0 1
234 3 12.466728970159775 0.42914112286768163 8.540173033125571 -1 0 0
9 1 1.4255797721926942 10.479479525553456 10.974285750177781 0 -1 0
326 4 2.3462089035993463 1.6741004094493037 10.294726872851538 0 1 1
200 3 2.2919809144263943 2.43330210042737 2.606292605174365 0 0 1
353 4 2.5765153762066166 5.525690816632849 8.678840746538024 2 0 -1
273 4 1.640200268457253 1.4557391045099553 1.3463400682235804 -2 1 3
14 1 2.8391422410094718 3.324111177210769 12.301329966876146 0 1 0
45 1 12.43422465942725 3.258781707296291 10.416441774242003 -1 0 0
170 3 1.3599534843683956 0.6760827998509855 0.7529784449306997 1 -2 0
145 3 9.405116780317107 8.184084874510223 11.535629105417247 0 -1 0
151 3 6.420737004191454 0.8665669217586058 0.6773333924591072 0 0 0
127 3 4.530888821284 2.4587045403327967 8.156621009654756 0 0 -2
147 3 8.310484361569943 4.481812308478894 12.576872695617178 1 1 -1
93 2 8.834855778347237 2.0353255468360913 1.050543618313818 0 0 1
194 3 5.064527831219407 5.938729629302702 7.010749478113791 -1 0 0
166 3 8.407070416335491 3.326084071755506 8.751515102695825 0 0 -1
100 2 8.502049416691555 2.2069989396926957 9.241139936957694 0 1 0
302 4 10.107233545661764 4.42813159646315 6.131814075314847 1 1 -1
285 4 8.690233047386286 0.9776868026097212 6.2749345655149105 0 -1 -1
120 3 8.880515682490692 1.8338858183093767 7.773007891654996 0 1 -2
99 2 7.749346597633147 5.419838136241794 12.196399707680225 0 1 0
322 4 4.16826065016873 3.3394104838380896 11.470621217601572 1 -1 2
221 3 10.245581773252116 2.2255540121677244 12.077761535570412 2 -1 -1
102 2 9.924093606165355 0.844016725216469 11.59860415933893 0 0 0
294 4 0.4507431774370668 5.802252218531456 8.898203423630026 -1 2 0
219 3 11.649202877146926 3.6974236296744705 1.7421189488463953 0 0 -2
263 3 12.806292575968868 2.7096776828193145 0.5090829764375665 -1 -1 0
266 3 11.21550434127653 1.6042606294638273 8.820533860868006 0 1 0
98 2 11.192950021122742 1.9424596459248376 11.372006644838844 -1 1 0
231 3 9.672727969498444 1.8808529511001153 1.1136359983642121 -1 0 -1
260 3 10.84563063022183 12.596833921689852 1.7699997078380372 0 0 1
226 3 1.0032645019039776 12.693981296938942 9.773875187913239 1 -1 0
1 1 9.872926327894376 3.4997327655807284 11.59567683751967 0 0 -2
342 4 7.507023332883781 0.6483044288686262 11.215322020772197 -2 -1 3
338 4 10.810899905556155 2.1769283807962085 12.225798017657544 -4 2 0
2 1 11.395234341827157 4.98421384171288 11.124577963310559 0 0 -1
351 4 12.721512803896065 6.692227149815746 2.2679440149221373 0 1 3
59 2 11.830219398709659 12.927728287673425 10.922219588441132 -1 0 -1
358 4 0.584877367851485 5.794751173685003 8.86182545786824 0 -1 -2
37 1 2.994140257670848 3.922236924262413 9.195860781706978 1 0 -1
13 1 2.3918722876520637 4.730714032000302 9.736968771566971 0 1 -1
30 1 1.3671334856196307 5.945972122593194 11.785739286695794 0 1 1
205 3 12.719675429255819 8.151036240025526 1.4361201895262048 -1 1 -2
346 4 6.423499728051774 9.643128695616104 10.352842691252272 -1 1 0
300 4 8.755470050039193 10.63037104189693 4.090429601413068 -1 1 3
17 1 6.278528585372356 6.56753910580753 8.739390195008552 0 0 0
114 3 9.827924708369705 11.627948393385735 8.839187915810387 1 2 -2
247 3 7.224844480236445 6.923512983741601 10.753446148016792 0 -1 0
314 4 5.429913804418247 10.389546569574348 11.65228980680546 -2 0 -1
336 4 5.505412745431236 5.852208258073183 12.382733377839271 -1 -1 -1
233 3 7.994286429971006 5.923642175572303 10.301102095985975 0 -1 -1
230 3 5.0654491728175435 6.359232988077609 10.848240467370749 -1 1 0
339 4 5.801853860249216 5.938040843743778 9.255732108807116 1 1 0
243 3 5.878884767776278 4.441488085820543 1.2851958772352303 0 0 1
265 3 6.6663115029495765 10.5477625429235 10.66715653371472 -2 1 0
253 3 13.302885368100046 7.089973938354623 8.603370861188989 -1 -1 -1
35 1 12.89949319683725 7.065141001878394 12.136921688422726 -1 0 0
350 4 5.664487908408189 8.325543271587032 12.748747052412076 -7 0 0
196 3 13.171776337630616 4.176589422408062 7.92863209414374 0 -1 -1
94 2 10.659966452670343 6.945302062687571 10.26588692294325 0 0 0
104 2 9.44724242768411 6.318775136838992 11.04553184426317 0 0 -1
296 4 7.058516881561979 7.666647832261742 9.72405212844061 -1 0 0
237 3 6.654604477949586 5.835194599554273 9.54195675891578 0 0 -2
3 1 1.7611864370627952 11.149288076764877 7.869527749723251 0 1 -1
315 4 7.043480715480279 11.647705147677831 12.861824890879289 2 0 0
163 3 12.838286907734563 9.801150979000518 0.580046741118943 0 -1 0
360 4 6.131973090263204 11.215144142680543 10.93577373068118 -3 1 2
164 3 8.449797220614936 10.910342162296658 11.913424688467028 1 -1 -1
214 3 4.976024130824456 10.828802139147866 8.425056170927105 0 1 -1
88 2 2.920445085808079 10.24006654152557 11.471510183792242 1 0 1
101 2 13.194624975486539 9.47081122031164 10.165822445560115 0 -1 2
109 3 3.8690525010318706 11.803924558261812 9.259561686999069 1 -1 -1
16 1 6.251584091302586 1.8364609995299512 10.397595296377332 0 3 -1
165 3 7.377471202652063 8.832916156369317 0.6584764935314621 0 -1 1
278 4 4.980821961759756 4.506962144917924 9.333003314233004 -1 -1 -3
324 4 5.251832208870084 12.497681538907019 12.077704171732952 0 5 1
238 3 4.238497625348379 10.873715958935643 0.7337983564172463 0 -2 1
240 3 3.9545785676312897 8.738071643068345 9.485289643163831 0 0 -1
359 4 9.955973282439754 10.974815230159853 10.244756301046337 -1 -1 1
87 2 4.297390312937436 9.940682957302368 9.573795009915235 -1 0 -1
175 3 7.917828064625657 10.727538574954535 12.334691775581765 0 -1 0
222 3 12.805531134777283 1.236987987333202 9.760357584189496 0 -1 0
70 2 8.685842159070695 11.89473815840071 0.8476890239051111 -1 0 1
254 3 7.631596924388022 10.056563644518171 9.96069926926376 0 0 0
349 4 4.5655742420366465 5.4472419055497845 10.772391373025696 -2 1 0
58 2 12.1682244510153 11.332107320970293 9.486033264979358 1 0 0
306 4 8.74969995852202 7.8031868588483055 12.660759579268662 0 -1 -2
333 4 11.037932278364812 11.641810926525809 1.383365006078014 -1 0 -1
181 3 10.475239199472478 12.043358779265242 11.685676795719155 -1 0 0
130 3 9.570202831556392 0.5034104240335953 0.5780365841450881 -1 1 0
227 3 2.0046724909108304 13.02242177134304 1.6151087835663063 0 -1 1

Velocities

236 -2.086624992354183 -18.19251494039777 -10.191958604755754
91 -22.62701368464035 -3.1068623941088647 -9.537167461108673
217 -8.306828031022235 -10.5716415701226 4.922818263312067
62 6.033461701539806 -16.39320844441113 8.851443035064591
307 -10.11337159015175 -24.620745038110435 -44.528607747100025
143 -5.287107202574426 -10.586845372821651 7.691669757815673
133 16.29887834267394 25.016442874472926 26.820491274416266
141 -23.129708898217867 20.140613072436633 11.64333465542246
340 2.1577622695133347 5.738255821898699 19.035127868249443
103 -14.764171192718614 15.167804712583944 -2.5353748038952197
60 -6.766930171830114 -12.188110208009135 1.0281755791212817
132 -17.45985321924757 -22.392336806657244 -5.350818313822258
241 10.512499797251829 28.215522691984674 18.538221174358988
171 20.029802347735107 -3.212290377948185 -3.096699118014049
72 -3.824807546330158 -6.753112386900181 -3.7514587302892957
252 15.073480647478913 -8.464987859743792 -8.971243300540873
160 -2.984399631771521 -7.273435678718485 6.837661966116737
356 -23.682761778847397 25.810742409730324 1.5320419511667973
256 8.271946472283863 -20.97396102368324 0.08248676262648662
73 2.4045977724419143 -6.861019865359812 -5.637696090097627
204 -18.97468271716541 5.156407143539532 2.0038481501584955
117 23.6152115605256 -31.608404434945385 4.710132460588727
23 -8.452814476285035 -8.17520918581572 -21.799591719102768
19 0.7517159638039242 -9.941880161793897 -3.6283559878944165
71 -1.146429730606493 16.953226008273376 24.50204572786096
327 11.757699920571094 -7.272388001652572 14.47856702390349
113 -17.692030742773383 10.278559460920498 28.39770696297749
357 20.911320508276894 12.401573209449984 -9.990530824829833
313 13.873524785158514 -8.706901229004565 3.391646070605609
269 -8.104139094921688 5.102164396031122 -5.115521616841407
8 14.915642636240154 14.895906251963186 13.60700926712171
118 6.03733115208105 -12.57133708809763 8.002336833776475
21 -10.97216535023367 14.280036718303977 8.059428745565874
174 -13.821939994089298 -16.55420118168763 -31.980816016931087
22 13.912772124754802 2.3122444392839867 14.37085846105645
31 -0.8892547212713873 -32.776538564304666 -0.5900660916416979
64 7.870192292423245 5.816171417748323 5.49770157857571
49 -7.1224752657406585 1.5923732845329481 -5.903830492903007
33 27.202309078427263 12.015026321504612 15.739834970114817
202 -4.790981622749447 49.42166762239496 3.4968118482598256
39 -17.100539948144792 -11.954861547257206 3.209953256815247
276 32.19573384726561 -2.6643441171260536 32.18319299687882
5 13.953132908993137 -14.569202204492289 6.2732653553206825
46 8.777212793064335 -12.235819411363458 3.1927136430723584
24 -18.783806295073745 0.6656271730314578 18.321090147417962
312 5.782772223787206 24.91120965295992 26.74027399044504
218 -19.744864918734237 -8.360551680672922 10.842345254741423
193 -10.710301632589085 9.51200851382686 6.556444788483169
144 9.251289664303496 -6.451397977776677 4.2144560102168
29 -16.344445112336466 -5.571723027716401 -3.9165209652925865
105 4.608298152114046 -5.30205124380109 9.64778243901521
138 -15.191118529074702 25.153700597434305 1.4641207594023071
311 1.9370821460551488 4.611629487320894 6.774910672818825
201 -13.542427933501742 -21.45885480763172 -3.3109588937159913
154 14.243501889195024 22.96608343302049 3.3687399955452633
180 -13.23975419083812 14.30083812033481 15.372159028660189
299 -21.544901992764135 20.44545033238109 6.076613344147133
74 7.587179533310907 14.693553963662653 -4.6646987201100325
66 -9.283942077798832 4.154729475044956 -8.25208580460356
52 13.120770356750741 -12.384443542408931 20.603790128651962
320 -13.705591716759328 9.015084353647845 12.25013612926466
229 6.147627257931116 0.8189177380931275 -5.108261943196878
116 6.4292109428843185 5.491262600314606 11.150043156552357
150 2.8324704811147354 12.74203534677029 -3.8393141604238674
77 -9.791011478108098 1.1039106087806518 -7.312892370362821
185 7.154418780888798 -3.443466819704593 -35.17518683039898
246 12.364102938515362 43.040390036884325 -9.968897163085627
199 1.7245418260516334 -6.5694746102063935 6.82961321551969
225 15.859867617644209 -9.465355218590116 -25.142597493329074
323 14.475010257761078 -46.262058749635585 55.23841916405794
10 1.1857439253441298 1.527733235526699 -8.455870304732022
53 1.8454362376554299 -1.7790965029009018 14.76832216818392
96 -1.6059771294260585 -1.3469938073879448 -1.7411302065769256
69 -0.93651348602081 1.3385643552381408 2.978194463126951
108 -4.653192563905523 -4.326706068307657 -4.507526240140191
270 12.667879455519811 -1.3638614997263976 20.033734701892556
274 36.79281644368355 -56.841767431629876 -69.31433522869577
244 15.133832532742332 -2.724687542173323 -22.098717861711492
83 19.689686577797165 -15.395277603795503 12.07497387139829
211 14.468296211202876 -29.082261185148933 -8.37197742154451
57 19.515102670054183 17.945866882827183 -4.1412496517044115
303 -43.63538515151084 3.663129877604945 9.680880651122067
262 -8.618203324513704 -2.071320447864055 -8.895102023859938
317 31.60456571754915 -14.17642905333336 2.6048023206898168
80 17.44936667518288 1.1481123772106978 8.825109705296413
321 -15.503523727215647 9.584039162324554 38.648650617807284
134 -29.31888699551462 0.7942817291028543 30.975752994382876