LAMMPS data file via write_data, version 2 Aug 2023, timestep = 600, units = metal

2880 atoms
4 atom types

-0.7733060720259459 28.793306072025935 xlo xhi
-0.7733060720259459 28.793306072025935 ylo yhi
-0.7330124651323491 27.293012465132392 zlo zhi

Masses

1 24.305
2 28.0855
3 15.9994
4 4.002602

Atoms # atomic

1 1 2.4522385543779626 1.9504098254043676 0.29668960209175754 0 0 0
57 2 -0.6995381085006755 2.119828639644866 2.4207555074793663 0 0 0
58 2 1.8267059394940652 -0.6788364166407093 2.4047534106548456 0 0 0
112 3 2.1262175524278946 0.024815243782932983 0.6850916086921188 0 0 0
113 3 0.4157131631250599 0.433727842911787 2.6582317570963654 0 0 0
114 3 0.5158504232049594 3.2355863085041827 2.357841294697627 0 0 0
118 3 2.9665136909789105 0.6322365582535412 3.435657203948102 0 0 0
117 3 2.844824211158493 2.841628624311538 1.9042166522043438 0 0 0
75 2 4.107146815877043 1.496853040685254 2.7785885363362746 0 0 0
163 3 4.4498151358599305 1.3876963970514935 1.2338923291500279 0 0 0
167 3 5.179061287209038 -0.05791340331605166 2.870439119935267 0 0 0
168 3 5.415790510200473 2.6989866655431833 3.4149520426239715 0 0 0
19 1 6.46854869882731 1.5769379069766107 0.9999876910699759 0 0 0
76 2 6.773865428303505 28.48486399056596 2.625468321960111 0 -1 0
166 3 6.2628003378150074 -0.20158232363645645 0.14636299182157864 0 0 0
172 3 7.746750817348474 0.42717762323020647 2.396504109281253 0 0 0
93 2 9.418183430007739 1.4635998454419665 2.6289869293557593 0 0 0
217 3 9.730290769110477 0.28515840998009967 0.3656948530018387 0 0 0
221 3 10.499730737312223 -0.3361771631215515 2.995957522130112 0 0 0
37 1 12.25074896204162 1.8678735131926083 1.2512862068511272 0 0 0
220 3 12.022672320470205 0.20669104582707654 0.7612657757564325 0 0 0
222 3 10.831613493228486 2.2848883156217314 2.5815049566004906 0 0 0
171 3 8.119515303069575 2.739465377527886 2.535729732490011 0 0 0
772 1 9.794039789965867 28.25237256731899 1.4833281077902232 0 0 0
226 3 12.668852601012988 0.8305607460824098 3.4960638278348757 0 0 0
417 2 13.78116096350043 1.9008711891021965 2.96722332525595 0 0 0
469 3 14.361038271852449 1.0364698087428437 1.5029465488874787 0 0 0
473 3 14.84663141767941 -0.29914339992447847 3.835717023016609 0 0 0
474 3 15.364488330322281 3.1347376661615343 2.7942638253620524 0 0 0
225 3 13.031168840499232 3.1569563080291476 2.2160312571053256 0 0 0
361 1 15.926171374033927 1.9776722605632697 0.9929893723839007 0 0 0
472 3 15.711073295425276 28.283118991430364 0.33465677949606487 0 -1 0
478 3 16.495594387088317 0.39967469630349406 2.3992615063859577 0 0 0
435 2 18.89143815065371 1.758782228977032 2.901348864640656 0 0 0
523 3 18.442935755216222 1.715678912549516 1.2131020661910241 0 0 0
527 3 19.754809447734058 0.010045213554943588 2.9964065446412107 0 0 0
477 3 18.062574610917977 3.273395091176143 2.9694414105818896 0 0 0
528 3 20.22666034602409 2.688534858731816 3.104086134528152 0 0 0
379 1 21.43981578903311 1.1148530133263626 0.5198439394790966 0 0 0
436 2 20.99460091948142 28.434299898003797 2.8479400250192057 0 -1 0
453 2 23.796299432604084 1.6867675161690747 2.474721388181797 0 0 0
526 3 20.82070225776929 -0.3593681196239843 -0.09157009897941948 0 0 0
532 3 22.474358631009753 0.22720388209905917 2.774310419234969 0 0 0
577 3 23.442100111010216 1.0316274986908305 0.6902578371948993 0 0 0
531 3 22.995614947109992 3.1323180071917207 2.155454254091393 0 0 0
109 3 28.2944926374505 1.5184087899381593 1.080595747716309 -1 0 0
581 3 24.70228846873564 0.1660378420264348 2.64475898930076 0 0 0
397 1 26.608144817616147 1.626028812185655 1.3186680704604252 0 0 0
580 3 26.026811061138154 -0.17879351728067838 0.8407368830725244 0 0 0
582 3 25.376167336878034 2.6079753188180037 2.4672303693262947 0 0 0
586 3 27.47799036392912 0.6776855319737374 3.0358761893429844 0 0 0
583 3 28.138991869829347 3.4145349203563935 -0.4321581756438706 0 0 0
585 3 27.466771936972346 3.1999942804700283 2.60297219491991 0 0 0
2086 4 24.52228402322421 3.100723669332688 25.698016942263685 0 0 0
4 1 -0.4480788003173631 4.5344940615423415 1.4245363674388334 0 0 0
64 2 1.7059213372601167 4.200936112428268 2.5102210728615897 0 0 0
130 3 1.4913351269332291 4.726223235300481 0.9206202337073206 0 0 0
131 3 0.18993627626087295 5.301996632703259 3.012559972952849 0 0 0
136 3 2.872848156965893 5.311082982639383 2.720610620686742 0 0 0
7 1 1.6291734257839163 6.972883241871267 1.0006996474479035 0 0 0
63 2 28.46182415318274 6.861174718901082 2.973302730807062 -1 0 0
132 3 0.5470816153277558 7.544960634988907 2.46647404324786 0 0 0
22 1 4.617365642317578 3.855965382487083 1.1987555666928253 0 0 0
181 3 4.317008695330908 5.84752615608806 1.2765313394494116 0 0 0
185 3 5.109320781083754 5.0723472758682115 3.324027269803403 0 0 0
82 2 6.691063230880071 3.897872927118196 3.0023412882041214 0 0 0
184 3 6.3290664124588245 4.020064577254004 1.3588977339274892 0 0 0
190 3 7.825805514807877 5.399917566947496 3.0552283523363846 0 0 0
81 2 4.301694688661946 6.541326822192493 2.8252697711254506 0 0 0
186 3 5.680579889302595 7.332956873970016 2.9203112603623467 0 0 0
25 1 6.803420967141343 7.139349310753285 1.0323824395297705 0 0 0
1718 4 4.835881547265878 5.0854964304115065 24.101996158155714 0 0 0
40 1 9.01730566757006 4.56625219242158 1.4789898394666623 0 0 0
235 3 8.87983824481526 6.4244802790508695 1.3594252899694435 0 0 0
239 3 10.135842057802552 4.6517344439386035 3.498986503794592 0 0 0
100 2 11.535525539143908 3.8046203806368597 3.2743261695867494 0 0 0
238 3 11.283425550610806 4.868979759487821 1.3146839557569314 0 0 0
99 2 9.22546723302845 6.74007508948871 3.115096434432011 0 0 0
240 3 10.666860770448366 7.534649639236672 3.3017356745598407 0 0 0
244 3 12.390270489115498 5.350398523764031 3.338661092915328 0 0 0
364 1 14.333273995699699 3.6006658423926012 0.6429697730516859 0 0 0
487 3 14.183063743881775 5.712732888739099 1.6594264190405368 0 0 0
491 3 15.07258959386597 4.830659055003151 3.7729139880721174 0 0 0
43 1 11.696612691414225 6.6377100275374135 1.9562341398313663 0 0 0
423 2 14.056015808486299 6.198582113372546 3.209493872745054 0 0 0
492 3 15.572486493426378 7.293049332536905 3.469088539030615 0 0 0
424 2 16.62138207496793 4.288668223313413 2.6014822076141795 0 0 0
490 3 16.436022722009856 3.9800303979401503 1.0041028180974494 0 0 0
496 3 17.209005025722785 5.818560981174889 3.214846178281668 0 0 0
382 1 18.386587920577224 3.508264532006348 0.20974719493841665 0 0 0
541 3 18.01306543989482 6.959281937670857 1.257086332750806 0 0 0
545 3 19.538073166438 5.29500794511341 3.7585721080398953 0 0 0
367 1 15.317703381926272 7.172848391600448 1.3716837003294802 0 0 0
441 2 18.596076579763402 7.044581515578858 3.166720948837265 0 0 0
400 1 22.855796868452494 4.229057405370467 0.8373830271050322 0 0 0
442 2 21.194782588774494 4.193994400235384 3.0760362446750844 0 0 0
544 3 21.086469852417263 4.5913292617156545 1.072458581025081 0 0 0
550 3 22.15190805684603 5.536662235518835 2.9388992832969776 0 0 0
595 3 23.917206467672116 6.722069974948882 1.0456692501744815 0 0 0
546 3 20.18688671256421 7.586697012074492 2.71391351101884 0 0 0
385 1 20.985509960655744 6.652807673916251 0.9756917421705975 0 0 0
459 2 23.682181523088218 6.85119192937191 2.804230253435058 0 0 0
127 3 28.710377290987378 6.786216160693161 0.050718588208019666 -1 0 0
599 3 25.11413751617836 5.519057341224811 3.1298632036335055 0 0 0
460 2 25.86547222699375 4.103551212290406 3.0301746860577845 0 0 0
598 3 26.10437790953923 5.157073156692311 0.5314632105097483 0 0 0
604 3 27.606836825319437 5.814681579055769 2.4326121801372977 0 0 0
403 1 25.87598059752774 7.099047067825274 1.4877526197258573 0 0 0
600 3 25.235801180502175 8.165141425879018 3.1332288163215014 0 0 0
10 1 -0.43616264182492637 8.923741135966406 0.9405886642223613 0 0 0
70 2 1.7348193020440053 8.965183164221388 2.9220657960947487 0 0 0
148 3 1.547004034297803 9.070079531145113 1.2087651264798167 0 0 0
149 3 -0.06404826414496112 9.797947361881073 2.596523640680305 0 0 0
135 3 3.294197301105541 7.935183195137432 2.3352512160807883 0 0 0
13 1 1.8199164780307755 10.935229064255367 1.495484395343417 0 0 0
69 2 -0.4629024132219094 11.653654067545919 2.434533323194355 0 0 0
145 3 -0.5611011459796529 10.88879114046149 0.8017931812819856 0 0 0
154 3 2.513407543897057 10.322014946223945 3.2875836137942223 0 0 0
28 1 4.5273966915147845 8.449381275030609 0.6268612328141498 0 0 0
203 3 5.415560490681735 10.19117657110558 3.2210266900323683 0 0 0
88 2 6.740722093382556 9.05926557426376 3.2357258089821967 0 0 0
202 3 6.3895273415832365 9.118486193272124 1.3394983201250108 0 0 0
87 2 4.648367115969793 11.730035676231813 2.360314616857136 0 0 0
199 3 4.5186677578585535 10.34455584559249 1.0274285770188705 0 0 0
31 1 6.559630273366267 10.9561958561333 1.2205337867126822 0 0 0
208 3 7.8560974044177705 10.527538889411806 3.400252751292787 0 0 0
46 1 9.781579639539427 9.171409656602412 1.9158691471579563 0 0 0
189 3 8.271010046105511 7.889067074858394 2.8208493099005403 0 0 0
257 3 10.304934910291408 10.288307233238076 3.2478261996471898 0 0 0
106 2 12.213338414949357 9.07741114656526 3.316657131972889 0 0 0
256 3 11.901171581729983 9.517123752554799 1.5348034803744053 0 0 0
105 2 9.156852353981328 11.636453936254277 2.851742347437221 0 0 0
253 3 8.81659486669719 10.749160056746014 1.2007207142858927 0 0 0
49 1 11.84991160529849 11.34251269760262 1.5445770713282876 0 0 0
243 3 13.403575649711238 8.026831929155481 3.040456927245306 0 0 0
370 1 13.58469494944778 9.04150705998345 0.7733304905741678 0 0 0
509 3 14.680513105005604 9.892080141906531 3.3858905828206414 0 0 0
262 3 12.620068161669211 10.725032817836839 3.4817901592638707 0 0 0
429 2 14.239703027904936 11.699575538630691 3.550016654391677 0 0 0
505 3 14.194145856059391 11.19402417553972 0.9474716432662511 0 0 0
430 2 16.214158202519855 9.145063712923484 3.160664890732694 0 0 0
508 3 16.020233864272992 8.938276215799434 1.3877096910627484 0 0 0
388 1 19.161408420447025 8.825909637552453 0.7192436836123706 0 0 0
493 3 17.633330428475222 8.46588013180611 27.11525123600532 0 0 -1
495 3 17.886933718315593 8.650895561671419 3.0646850040855425 0 0 0
552 3 19.840798754735406 7.5684608173153105 -0.21466637443602432 0 0 0
563 3 19.85455188062832 10.33009572233901 3.5111436533655755 0 0 0
373 1 16.186420115544053 11.469568666625218 0.8617740886126024 0 0 0
514 3 17.208915683722637 10.963402369576354 3.3969042090202475 0 0 0
447 2 18.552428942013673 11.54268733556288 2.787972711018874 0 0 0
559 3 18.239088906690675 10.66807555845644 1.0250518019934576 0 0 0
406 1 23.242954611052642 10.224268465211814 0.958614775513513 0 0 0
448 2 21.075050532011815 9.354139703008943 2.810766982725922 0 0 0
547 3 22.264914650156655 7.687510148128965 27.286647914622755 0 0 -1
549 3 22.690814380491084 8.355249923527838 2.253342270187014 0 0 0
562 3 20.761664446706273 9.828205333716005 1.1751121751541123 0 0 0
391 1 21.06700270961621 11.779039437921167 1.5025613066584684 0 0 0
465 2 23.734208507597263 11.832425279897867 2.9999882434130627 0 0 0
613 3 23.111626665026 11.946314962563825 1.5598458755577322 0 0 0
617 3 24.86853018778104 10.634299898588635 2.9191864357959867 0 0 0
466 2 26.41051709108373 9.248689542182115 2.6598385788854335 0 0 0
603 3 27.492696281629314 8.177840089542016 2.0639081127332197 0 0 0
616 3 25.79800028891056 9.811534999679461 0.810973038232341 0 0 0
622 3 27.464144729725604 10.877605383712494 2.3916664680505617 0 0 0
16 1 0.4975081535072303 13.583757715497196 0.31115916658761367 0 0 0
150 3 1.086904563122498 12.425770580697327 2.0668164469059818 0 0 0
153 3 3.4834277853340874 13.156525995648593 1.940923508733912 0 0 0
778 2 2.066456406987088 14.06451586905627 2.5632977517876023 0 0 0
832 3 2.247332266610219 14.142996614960891 0.2623562569977592 0 0 0
833 3 0.3941475958347922 14.691116654819584 2.233266581391824 0 0 0
838 3 2.736082265681738 15.54026413480787 2.6691022443996575 0 0 0
34 1 4.7838625249978 14.224393798741662 0.7687404813152323 0 0 0
204 3 6.003821772000921 12.754253119340937 1.9620390272888462 0 0 0
883 3 4.456714247477619 16.241711173314126 0.38092457182177863 0 0 0
887 3 5.253208606183844 15.291692508203155 3.1831061761983763 0 0 0
796 2 6.764239606321621 14.431703973010903 2.92550819614289 0 0 0
886 3 6.8021199758877104 15.141404372576499 1.348567187297177 0 0 0
892 3 7.484351085770381 15.632017719768069 3.338598935695736 0 0 0
52 1 9.801468591806257 14.226746573638183 0.7162474490496928 0 0 0
207 3 8.263768373673924 13.094483132328238 2.4307199857092208 0 0 0
258 3 10.575855151154194 12.504305702001531 2.7607847530534637 0 0 0
937 3 9.57657526763865 16.669602982001788 1.4229951533378422 0 0 0
941 3 9.938455010815076 14.787112610080161 3.47257240031883 0 0 0
814 2 11.485181786803427 13.956483430862063 2.925823278499488 0 0 0
940 3 11.224271316031789 15.145108628939992 1.5092804531339343 0 0 0
259 3 12.972997685403081 12.739798058831463 -0.4113554443639772 0 0 0
261 3 12.889140330888251 12.889259261968352 2.538312889597346 0 0 0
376 1 13.185336571610042 14.33866033436431 0.8794416329996875 0 0 0
510 3 15.55052023810029 12.561588906333103 2.830056752807643 0 0 0
946 3 12.854017602708595 15.2559758707948 3.3283077372613787 0 0 0
1189 3 14.67167731037917 15.749685859309167 0.8253602192507281 0 0 0
1193 3 15.64169320696277 14.9725646284571 3.451343295175712 0 0 0
394 1 18.60379636770015 14.181983587704766 0.4761822007155627 0 0 0
513 3 18.00503585481057 12.977128131530995 2.2051151808926823 0 0 0
564 3 20.009045217642484 12.628189085707776 2.551261240593368 0 0 0
1138 2 16.63110981779233 13.944665181203444 2.8222388753110397 0 0 0
1192 3 16.80994078849257 14.669176918994031 0.419649383328734 0 0 0
1198 3 17.78626264362773 15.433053221745418 2.7177831690446017 0 0 0
1243 3 18.789925947601226 16.064914561997657 0.5856612238202168 0 0 0
1247 3 20.151190941657504 15.397079426661787 3.156425732125611 0 0 0
570 3 19.81640238415815 12.774779395419015 -0.1890645394276682 0 0 0
412 1 23.598031626063648 13.740032638070359 0.860347857138261 0 0 0
565 3 22.47150529331962 13.101863228717272 27.252374428001588 0 0 -1
567 3 22.759090182775424 13.315335161839075 2.9781455634354517 0 0 0
1156 2 21.22565460124459 13.9599471757183 2.8187885662026164 0 0 0
1246 3 21.405947612642954 14.024848504050796 0.814596782554027 0 0 0
1252 3 22.598464189320403 15.835712297399716 2.6795231062918177 0 0 0
409 1 26.141250361510746 11.885863532901228 1.1943336946319725 0 0 0
618 3 25.08978727096912 13.02728945003115 2.1687160478663126 0 0 0
621 3 28.14088459955806 13.12981961002267 2.0469320066626135 0 0 0
829 3 28.659117977515386 15.295548858413916 1.0172992276405746 -1 0 0
1301 3 25.022414605870825 15.526202015692782 3.110319066523329 0 0 0
1174 2 26.14725979974036 14.37692716602288 2.4448789240884983 0 0 0
1300 3 26.014031910800938 14.849067487914265 0.8039116017897305 0 0 0
1306 3 27.012000762059863 15.672881030120983 2.94104742086165 0 0 0
721 1 1.8659124785525423 16.021817663951825 0.7714489468953456 0 0 0
834 3 0.8446957734986269 17.20524584294831 1.71707711421841 0 0 0
724 1 -0.6342667642752328 18.79757512703237 0.038888264584011956 0 0 0
784 2 2.0260162496681953 18.460083545413664 1.663575896635137 0 0 0
850 3 2.5774902273111073 18.923954458268362 0.3064594851103679 0 0 0
851 3 0.5972296320070181 19.722048155920103 1.7349265713911097 0 0 0
835 3 2.809026264151172 16.98765407833908 -0.7315130173082736 0 0 0
837 3 3.248893342551412 17.788772939162197 2.293276871908932 0 0 0
795 2 4.335200626683815 16.59554414889557 2.6987590150639726 0 0 0
888 3 5.801438653065355 17.831782597890598 2.6170157085968446 0 0 0
739 1 7.258807409093075 16.59948125345986 0.9908861097669768 0 0 0
742 1 4.582909260232624 18.547521289057187 0.7007268452040394 0 0 0
905 3 5.566517507457923 20.5444886315411 2.9969868725171045 0 0 0
802 2 6.978357554372138 19.275006960816466 2.720752615887478 0 0 0
904 3 6.627475015210065 19.50948667047158 0.8376205238071361 0 0 0
813 2 9.265842800607357 16.290017449169607 2.7946048922665034 0 0 0
757 1 11.865532333035858 16.893488472851708 1.0079678146887692 0 0 0
942 3 10.93292760643554 17.184602613645453 3.0061916151521193 0 0 0
948 3 8.902113741225008 16.948086386893824 26.995978581036113 0 0 -1
760 1 9.908216453914086 18.530970406844588 1.5217610280550553 0 0 0
891 3 8.305587104640011 18.21537039402043 2.456567573629868 0 0 0
959 3 10.40663224692911 20.004124533057016 3.5775981387291997 0 0 0
820 2 11.909181685023116 18.88390538646179 2.9581519665625877 0 0 0
958 3 11.552414735913489 19.26368777148554 0.2358013153587718 0 0 0
1137 2 14.396079017973168 16.418554364547763 2.6571956886748582 0 0 0
1194 3 15.52045024148758 18.13893873069125 2.2373512822628716 0 0 0
945 3 13.141227170105758 17.658748657889902 2.4888790377596837 0 0 0
1084 1 14.387535931957892 18.820371626847617 0.45459434995593373 0 0 0
1211 3 15.473333374952688 20.425214374057326 3.3676580223154327 0 0 0
1081 1 16.656787854552462 16.563173245423297 1.2494234578309413 0 0 0
1155 2 19.099358962478124 16.3789855668835 2.045316907433474 0 0 0
1144 2 16.66809327427707 19.435618623865732 2.621060663181611 0 0 0
1210 3 16.766723990827213 19.777095365552043 1.0908371803658274 0 0 0
1102 1 19.10004968820903 18.874980808552614 0.8276856428269863 0 0 0
1197 3 18.341155022507202 17.99906013928529 2.0195825564374346 0 0 0
1265 3 20.392229489372024 19.823826078209493 2.483293761295696 0 0 0
1248 3 20.670044238187 17.36884878372895 2.185575962965478 0 0 0
1099 1 21.738582502334506 16.3002690075726 0.9757774652052478 0 0 0
1173 2 23.965252774376765 16.7970342714109 2.379253038669707 0 0 0
1297 3 23.710340204186476 16.170252010656007 0.5466398689185215 0 0 0
1120 1 24.48516385971621 19.06988473185782 0.5596275362999319 0 0 0
1162 2 21.49802551282619 18.655969446357275 2.202610747958086 0 0 0
1251 3 22.94544080875976 18.057830692394038 2.2998879382513238 0 0 0
1264 3 20.94414078966831 18.72431827174483 -0.024253059868729276 0 0 0
777 2 -0.5318573193767664 16.09843711577541 2.263691274448826 0 0 0
1117 1 26.807868559936637 16.629884571428406 0.7096599361872606 0 0 0
1302 3 25.97567971982334 17.575586894008485 2.092874864738746 0 0 0
1319 3 25.081062545462476 20.203089249265293 1.9634844080005665 0 0 0
1180 2 26.99739187773689 18.976986764363307 1.9527967416095602 0 0 0
1305 3 28.152415205437027 17.953727167121187 1.3135329033221588 0 0 0
1318 3 26.44535069924961 19.052251197936677 0.2057047909721571 0 0 0
856 3 2.647865840661166 19.783097981825573 2.784288840091194 0 0 0
727 1 1.602874807069517 20.770535557127346 0.2999694394864163 0 0 0
730 1 -0.24123853131930306 23.692699424987996 -0.2508371579143682 0 0 0
783 2 -0.2317435453946035 21.486195061850108 1.4410601511217758 0 0 0
790 2 1.4925658158101656 23.993059992634453 1.8208163296667523 0 0 0
852 3 0.95433567717581 22.47350414294701 0.9185975092920791 0 0 0
868 3 1.598797684506445 24.44795292325504 -0.393686452140731 0 0 0
869 3 0.47986405158597356 25.374042314693682 2.260761639764589 0 0 0
855 3 3.165526473647035 22.61521762302418 1.7523271768170585 0 0 0
901 3 4.293525641137798 20.652456569260487 0.6341652696175988 0 0 0
910 3 8.053566223924905 20.716391460157638 2.975472889764753 0 0 0
748 1 4.462996595133553 23.6766168772563 1.2944960967961001 0 0 0
801 2 3.959545817579839 21.115705473226797 2.462701021468916 0 0 0
906 3 5.844205807515149 22.55311195716621 2.000620440572151 0 0 0
745 1 6.143145939685474 21.269700474681862 0.5730516600831155 0 0 0
808 2 6.91872359835643 24.202542749287034 2.598229479822699 0 0 0
922 3 6.0370206395234405 24.248988624134373 -0.2006084978713638 0 0 0
955 3 9.341097151316049 20.723411151427047 0.7168528220019175 0 0 0
766 1 9.016445979259398 23.907656992065103 0.3728890945786143 0 0 0
819 2 9.32278345952359 21.555832407926832 2.548206793064339 0 0 0
909 3 8.267073576480486 23.068885840791168 2.249319367661621 0 0 0
763 1 11.909841725580902 21.300568396445566 1.203336190565124 0 0 0
826 2 11.608606353299177 23.9317012645911 2.9285290396965835 0 0 0
960 3 10.824660215916163 22.437552887255826 2.8639783710181406 0 0 0
976 3 11.488570819208412 23.816525826555793 1.0470905556249617 0 0 0
964 3 13.050767098193603 20.31499538394735 3.0364648752652466 0 0 0
1207 3 13.467971761229814 20.41277373740774 0.5511550329962831 0 0 0
961 3 12.837229416335166 22.55413428673202 -0.36396477863088883 0 0 0
963 3 13.616042246812656 22.75567987930743 2.05345429023935 0 0 0
1090 1 14.377354765726265 23.692851135791397 0.5281369354684617 0 0 0
1143 2 14.438686891204394 21.73012978868133 2.8105621121090913 0 0 0
1212 3 15.895067831620885 22.58272180535561 2.264231233260576 0 0 0
1216 3 17.89913685369063 20.06163012150924 3.3654064232699534 0 0 0
1261 3 18.766037816316594 21.627665278196197 0.9748867375276049 0 0 0
1087 1 16.715705378255226 22.113171819224352 0.21815530325753785 0 0 0
1150 2 16.554445940247998 23.97858428023809 2.548787368325125 0 0 0
1108 1 19.07958714749026 23.904327518237544 -0.2136626561617172 0 0 0
1161 2 19.05310477073205 22.53621852474738 2.1148343853321383 0 0 0
1215 3 17.939069983942616 23.629759569476814 1.7264321844393522 0 0 0
1266 3 20.66198459304536 22.651737481017765 1.7157686153855711 0 0 0
1272 3 20.691552518573683 23.084715161195952 26.992404429970172 0 0 -1
1270 3 22.618527931489265 20.176430805964973 1.5334360765484196 0 0 0
1315 3 24.84831384494649 21.623291950852987 0.009497974206362447 0 0 0
1105 1 20.953963492014665 21.124497310371268 0.3893365972831966 0 0 0
1126 1 24.73871529653653 23.862345963710283 -0.31647349169628086 0 0 0
1168 2 21.49636996840305 24.25942282033788 2.1159414305273043 0 0 0
1179 2 23.899340023356828 21.65140262340808 1.2953170241110508 0 0 0
1269 3 23.089222343245947 23.190102545308864 1.215900353448768 0 0 0
1282 3 21.629260338409072 24.96512022032848 0.15194090225790846 0 0 0
847 3 28.290741389480846 20.84459101934707 -0.17676364516398535 -1 0 0
1324 3 27.77957806873639 20.520918272499873 2.255057245828414 0 0 0
1123 1 26.699012041388784 21.6844267448031 -0.47130155840374754 0 0 0
1186 2 26.95202441327114 24.36669755377898 1.3867803679080848 0 0 0
1320 3 25.877376138882042 23.10287881872387 1.5886734240028573 0 0 0
1323 3 28.283247328464245 22.931003974402575 1.0992373516679927 0 0 0
1336 3 26.650015536024384 24.748925175305555 -0.208478279967116 0 0 0
733 1 2.172152260356628 25.987949251921368 0.2530126578783063 0 0 0
736 1 -0.19738593389165437 -0.16094764300694997 0.2075692561629089 0 1 0
789 2 -0.33490860060948485 26.74152058857283 1.9664616045114753 0 0 0
870 3 0.6316575866301617 27.95081765590096 1.6455728755599557 0 0 0
874 3 2.959854876398691 25.205447053867708 2.4153912510143973 0 0 0
876 3 0.3703898960276679 28.665120832341312 26.377400770479674 0 0 -1
873 3 3.010983130346979 27.739604776158913 1.9021980538777261 0 0 0
923 3 5.23605994410312 24.648395703446077 2.6881850304574924 0 0 0
754 1 4.887880305791616 28.313677124551386 0.10864896817792669 0 0 0
807 2 4.294110650512602 26.36585924279122 2.179867304928354 0 0 0
919 3 4.307616380438966 26.23219442494763 0.6012064853575418 0 0 0
924 3 5.719074463585982 27.33995889861026 1.9148311679982486 0 0 0
751 1 6.140644423898503 25.743516545169204 0.5866537189827767 0 0 0
928 3 7.438797398916208 25.622785207271157 3.0005702926542965 0 0 0
94 2 11.946436456187575 -0.7711235659331023 3.311747217561779 0 0 0
977 3 9.985306776269812 24.795280027863022 3.16961098348242 0 0 0
825 2 8.934570233367713 26.141783303567248 3.293460433915331 0 0 0
925 3 8.142724198329827 27.791161310784005 0.387683476553772 0 0 0
927 3 8.348063152185208 27.813818494336772 3.112892981018346 0 0 0
973 3 8.2753952428551 25.95076214044169 0.8826764764643489 0 0 0
769 1 11.960144618012022 26.19628469186322 1.12663788442498 0 0 0
978 3 10.342890138768892 26.42155927568195 2.2909271412372822 0 0 0
1229 3 15.27831884697223 24.70392939783733 3.589955084286836 0 0 0
981 3 12.751870941827331 28.03179178582104 2.181822773104044 0 0 0
982 3 13.057725696506797 25.195744307236062 3.117999941458057 0 0 0
1096 1 14.166820064059698 -0.7109052166773115 1.3656266540298185 0 1 0
1149 2 14.2189407181014 25.92841005313153 2.4135529193290615 0 0 0
1225 3 13.483853604134563 25.351005028092377 0.6909904098681028 0 0 0
1230 3 15.479848921891904 26.914517190720233 2.76468804164608 0 0 0
1236 3 15.660174762700791 26.920597815745978 26.761328848768855 0 0 -1
418 2 16.3347194797519 28.554973807587125 3.3629383882662225 0 -1 0
1228 3 15.596012436587099 24.89646349235613 1.1854164573416188 0 0 0
1283 3 20.23760558922788 25.064039039000885 2.144603014368353 0 0 0
1093 1 16.750331033805594 26.569652109267626 1.1796645220170683 0 0 0
1234 3 17.520833524316146 25.584020242418703 3.2457517264809916 0 0 0
1114 1 17.850215341390008 -0.3577730887836122 1.0285996388222955 0 1 0
1167 2 18.875413228781053 26.499788303441584 3.0275949511156197 0 0 0
1233 3 17.6341777647275 27.79186374224455 2.624917774685825 0 0 0
1279 3 18.44852039644875 26.385635238328238 0.27526011406964024 0 0 0
1284 3 20.122073716049876 27.618871334662778 1.8088172305412744 0 0 0
1111 1 21.480947908143158 27.030790117361153 0.404099490745379 0 0 0
1132 1 23.887931601006517 -0.7671182160969039 0.6794962099145176 0 1 0
1185 2 23.804950506515816 26.401311273705307 1.7754145578750147 0 0 0
1287 3 22.664464536003564 27.69110434217988 1.7029593968480552 0 0 0
1288 3 22.63216428026535 25.3632925096512 2.2278491538056744 0 0 0
1333 3 23.85461147437499 26.407494070271643 0.09739126688771094 0 0 0
454 2 26.186680318348614 -0.7256567103184945 2.246858915131247 0 0 0
1337 3 25.203532123252316 25.104826001098672 2.6423250872985005 0 0 0
865 3 -0.04243930013050268 26.24598223411847 0.04236489446673031 0 0 0
1129 1 26.67931652370603 27.644764889631567 -0.013890155915713964 0 0 0
1338 3 25.352623050716915 27.4642394762053 1.5673431019361561 0 0 0
1341 3 27.851229577503425 27.987932021970273 1.6699639658269212 0 0 0
1342 3 28.01218537755387 25.365591043478233 1.9312494720898985 0 0 0
3 1 1.7061249915371577 1.3085968114004198 4.824466101001825 0 0 0
59 2 28.710814402487863 1.3025968451527712 5.587816710056695 -1 0 0
60 2 1.5603725560552717 -0.7523805602475412 6.035039051039144 0 0 0
116 3 2.591883957796565 0.6118380597660777 6.222416085106666 0 0 0
119 3 0.11234374317713425 -0.00560666778234753 5.397851721727432 0 0 0
126 3 -0.09374453202819488 2.242899289828677 6.551203717179983 0 0 0
579 3 -0.48303129294569436 2.01810594516784 4.22522553823152 1 0 0
2 1 4.3750711364565005 28.57315228185742 4.319018148480213 0 -1 0
21 1 6.25200411352968 0.9906391863936828 4.334182259143575 0 0 0
77 2 4.1626353684405055 1.6880688212966328 6.966978115468427 0 0 0
111 3 4.740037791010255 1.708341343558438 5.480897104529629 0 0 0
173 3 4.832475333310828 -0.2582426607892635 7.077431075655296 0 0 0
180 3 5.697321876789233 2.445151915053771 7.744314880026453 0 0 0
78 2 6.7071587547862785 28.51634894343363 6.672447687561066 0 -1 0
170 3 7.239600879860976 0.25783296097506647 6.048970634353061 0 0 0
20 1 8.79114549164006 28.695166765607897 4.949181080634403 0 -1 0
95 2 8.588477897360049 1.4837153850723426 6.403215009529489 0 0 0
165 3 9.333617724368322 1.0254226679931933 4.550312722805225 0 0 0
227 3 9.85178799877163 -0.47059497504996917 6.545155580720676 0 0 0
39 1 10.92188544419508 1.1113137777557553 5.134881256059442 0 0 0
96 2 11.266069431129184 -0.6105511174382974 7.074795922223425 0 0 0
234 3 10.279758901879083 2.2451525396482492 6.324915150429481 0 0 0
178 3 7.889944275596333 2.706306317875283 6.517904091767268 0 0 0
219 3 13.834035992201509 2.294519928001469 4.5825849494665505 0 0 0
224 3 12.258767522531533 0.5931840408474252 6.750312193499259 0 0 0
419 2 13.641829372787024 1.2725680696174444 7.546958248432894 0 0 0
479 3 14.976109956999238 1.0985340621428428 6.717870122273271 0 0 0
363 1 16.042810727699397 1.5761972537236062 4.581332911151473 0 0 0
476 3 17.157629334276997 1.0075370246337414 7.099278093590173 0 0 0
437 2 18.770295992974894 1.7952456330351065 7.191405867681029 0 0 0
471 3 18.400320931500872 1.2984480490326762 4.340375417037923 0 0 0
533 3 19.769876795613822 0.3408384370308446 6.551511403838908 0 0 0
381 1 20.97558742176742 1.7130353404641787 5.0977050360794385 0 0 0
380 1 23.13322133874802 -0.47837302693345823 4.359539024794024 0 0 0
438 2 21.23277374992322 28.59844749086359 6.451907377730654 0 -1 0
455 2 23.51260579153326 2.2740096508434564 6.0792771191965755 0 0 0
525 3 23.80755721900166 2.6252113495517087 4.391839601562537 0 0 0
530 3 22.416019700490974 0.24717362288771438 6.416091178108309 0 0 0
587 3 24.767588515782535 0.6702495448775061 5.6020467528692475 0 0 0
398 1 28.681483547160425 -0.4328676797260204 3.8647073052823115 0 0 0
399 1 26.09530474650489 1.6099175109272772 4.349402122970894 0 0 0
584 3 27.337404147334638 0.14810121562254985 5.188929313417995 0 0 0
594 3 24.587039561138678 2.432922496370392 7.061954153003371 0 0 0
9 1 1.3819586231415415 6.214950353282306 4.223312174581149 0 0 0
66 2 2.0421176939594363 4.5172790176814805 6.402425237748567 0 0 0
110 3 1.4954137544759676 3.782899698096112 4.7497062545127955 0 0 0
134 3 3.1092855680533202 5.387111946671483 5.371234930988066 0 0 0
137 3 -0.08602615496350119 5.09244654842956 5.88751222532609 0 0 0
124 3 3.21265685281069 3.0840854415519705 6.928493298018559 0 0 0
65 2 28.57769201366805 6.650320094811035 6.696613586243254 -1 0 0
144 3 0.16134037083127606 7.918666327370925 6.980660980544247 0 0 0
597 3 28.7545414686592 7.614415258905108 4.174981203571666 0 0 0
8 1 4.699864239246496 3.644439501534025 4.825605139247015 0 0 0
27 1 6.678920779369918 6.304042324947758 4.52862988519678 0 0 0
164 3 7.224929386796134 3.6878347136267093 4.418159608750974 0 0 0
191 3 5.704681649405369 4.792341801699952 6.130419460808934 0 0 0
84 2 6.714354325144842 3.7347595735141326 6.450513292420796 0 0 0
83 2 4.0133861783123175 6.695912752235683 6.161368512872573 0 0 0
129 3 4.492619683166653 7.443449628758039 4.837719509232352 0 0 0
198 3 5.2098419630926305 7.809589355951205 7.3478813126157885 0 0 0
26 1 8.706954626429653 4.343860834011624 4.8864491558419925 0 0 0