LAMMPS data file via write_data, version 2 Aug 2023, timestep = 600, units = metal

2880 atoms
4 atom types

1.4976330570711962 26.52236694292878 xlo xhi
1.4976330570711962 26.52236694292878 ylo yhi
1.4195979299004815 25.140402070099487 zlo zhi

Masses

1 24.305
2 28.0855
3 15.9994
4 4.002602

Atoms # atomic

1 1 2.9004291244160743 3.5283691113160005 24.522441413885993 0 0 -1
58 2 4.961019213400579 4.071207723972675 3.8791286268449108 0 0 0
113 3 2.681140168111728 20.491505161241555 3.8002428171185323 0 -1 0
114 3 1.631214141998161 11.157718875868685 2.545903908839003 0 0 0
118 3 23.649678660824073 10.562745877379903 24.632821748318065 -1 0 -1
120 3 2.854265111129118 9.874361271266071 3.0377066974228066 0 0 0
117 3 3.816413971326119 6.117663762070519 24.890588928823462 0 0 -1
754 1 5.297283897807806 1.7656064162659866 3.383994713800832 0 1 0
1721 4 9.184899743978892 25.40968346171617 23.75118791230731 0 -1 0
73 2 6.365975949425582 4.580060678745419 3.327795033829443 0 0 0
75 2 5.760520906836143 25.51110725045406 6.117161088595636 0 -1 0
163 3 4.34541229015134 3.5182876779672974 23.969791897577615 0 0 -1
167 3 9.458177804975836 25.536945837127625 3.3848392545140764 0 -1 0
19 1 8.961839654184999 6.95605460618917 2.1469105371208737 0 0 0
76 2 6.936977702926619 6.466428649367557 6.1098658744949494 0 0 0
166 3 11.055504461814222 3.21748327408463 19.00831790827644 0 0 -1
172 3 10.962039150233782 26.49396883054078 2.5929608966057276 0 -1 0
217 3 7.4237909273238945 25.185262486874684 24.918314034867358 0 -1 -1
80 2 6.725789124556465 5.9679340242666585 24.99617871060601 0 0 -1
82 2 6.134497025095002 8.092647905856744 3.798500141064083 0 0 0
169 3 5.695169147085837 25.876276821290183 21.92773779450885 0 -1 -1
171 3 10.538592982117244 2.7401349641012755 24.16147808405507 0 0 -1
184 3 6.726762464014336 5.526234085595851 17.82697091848194 0 0 -1
772 1 8.002932239163762 26.312453198279705 22.919711956897146 0 0 -1
164 3 12.084686919566394 6.149902388578889 8.967678585661044 0 0 0
1764 4 10.68556843070592 7.303764144345597 8.125963705541093 0 0 1
1724 4 12.271120370562743 9.068156311149895 6.556779321943054 0 0 1
2450 4 12.904826671105274 9.451139072834426 4.835016943674219 0 1 1
93 2 12.127455879459596 4.738872091308615 4.098225303993454 0 0 0
37 1 12.962778272313184 3.0519358169986592 1.7920001131656793 0 0 0
94 2 9.680870592587905 4.165508862158607 8.256545343933269 0 0 0
220 3 9.211433627305148 25.208412088787426 24.45885788094067 0 -1 -1
222 3 14.66019736676049 26.465427636702188 4.066374877065304 0 -1 0
226 3 15.06698740036814 3.6407997005300103 5.914594367187565 0 0 0
228 3 15.936303979129715 6.794571422949113 23.74205523641185 0 0 -1
469 3 12.544434610023238 2.5833651311803885 24.71076408277927 0 0 -1
225 3 15.24714827915218 10.562932085085071 2.1609356885109126 0 0 0
364 1 13.007489703624165 2.5809423637161832 3.4659880109538133 0 0 0
1756 4 16.443594833676023 6.873244074491484 1.731343374752136 0 0 1
1762 4 4.354179494145745 9.777728188829258 9.409868604639037 0 0 1
361 1 19.548167161611154 3.4567205621984627 24.98316782008301 0 0 -1
415 2 15.63173781310609 3.314133661296058 24.37290897267662 0 0 -1
417 2 15.902300060218876 8.917958254678181 6.406950189526883 0 0 0
418 2 19.8214251833057 23.25463579425211 7.936986543731689 0 -1 0
472 3 18.258457699065524 2.419797808915261 5.112595499399048 0 0 0
473 3 20.37876646332552 25.20893135552125 16.178490041596838 0 -1 -1
474 3 13.397187644499 6.405213621205503 23.683696672060783 0 0 -1
478 3 16.395860290277263 4.370983044913492 4.49208299653872 0 0 0
480 3 14.437881993973932 7.04844400669398 2.9502414733963556 0 0 0
433 2 19.760102475672916 4.702540142835 23.748398003845168 0 0 -1
435 2 14.234991697460746 2.8553189652767266 2.914907831014475 0 0 0
223 3 15.287637467326151 5.897325735678094 1.857266153305866 0 0 0
424 2 17.90343260015714 5.281151722650796 5.671699574367174 0 0 0
490 3 13.969088616140299 7.126682788478599 2.2520510649619547 0 0 0
477 3 16.62619394941614 6.278459846088043 23.40079528267428 0 0 -1
471 3 16.013314582317165 6.629130705682502 23.813008411097414 0 0 -1
1226 3 19.83289529572697 4.1648213356187025 10.829144980420473 0 1 0
2085 4 11.019171623881432 24.008461834728607 3.5959402704523558 0 -1 1
523 3 21.47437782517892 9.517161387808658 24.08560777737165 0 0 -1
527 3 15.66780324029318 5.201047197863044 4.65473395937831 0 0 0
528 3 19.113308997811053 6.509152548887598 23.345464405647824 0 0 -1
534 3 16.35010186904505 2.4218228097928307 21.92024666973162 0 0 -1
379 1 19.81106706934056 5.735021611725008 2.363418517620262 0 0 0
453 2 23.777440489285908 26.089897392890094 5.955285912477255 0 -1 0
526 3 23.113830096166964 5.967263328100251 5.685174609970675 0 0 0
532 3 21.384754595170598 2.7736225689988063 23.989461899257975 0 0 -1
577 3 17.704339446291 5.4736980013561105 24.76879640294912 0 0 -1
382 1 20.219907376273568 3.031767848615015 23.135599174039278 0 0 -1
442 2 21.995328819073443 3.9959855653137533 8.98405127647826 0 0 0
531 3 24.291235396071883 1.5150353458523005 3.4397416476618465 0 0 0
524 3 19.3352593799936 3.659176985853353 6.684157620821887 0 0 0
1280 3 20.9999260622682 5.783893612751336 6.379716942699383 0 1 0
57 2 25.285570589867767 25.528061438420707 6.600850085140469 -1 -1 0
109 3 1.8678491051189658 22.946325281847905 23.928884400632874 0 -1 -1
451 2 23.713018772568816 1.8264826693467986 24.08515374317694 0 0 -1
581 3 25.752668656264234 26.201730417770584 2.6925754009215916 0 -1 0
397 1 2.766709832041529 6.254099214880484 21.465825273409813 1 0 -1
454 2 24.503593352913853 5.209512443247563 5.785818981768806 0 0 0
580 3 25.692252743676306 3.6215156046837613 4.146388015679243 0 0 0
582 3 26.307371449874985 2.031629603262397 24.93467284366507 0 0 -1
4 1 25.477842304199413 4.192891312605843 24.79868343551555 -1 0 -1
585 3 24.87300954542357 23.116352642783426 24.01630127883837 0 -1 -1
579 3 1.9795855039007653 21.7387943120562 7.9562745839888525 1 -1 0
1334 3 4.383872785403121 25.60975827412652 5.5416004451722936 1 0 0
2086 4 24.149285413759664 23.712068370575146 8.577963724255278 0 -1 1
62 2 6.186819780337533 8.249600386271982 1.5299446131131915 0 0 0
64 2 6.1703584832712215 7.609390943597974 4.22936332246085 0 0 0
130 3 24.319980796129364 7.229835522920134 2.6293080029717686 -1 0 0
131 3 2.4143101607794977 11.370870068656744 24.83717210963522 0 0 -1
7 1 4.931614920238193 4.6284605789624775 18.631005863865674 0 0 -1
63 2 4.678531763435906 10.57293622857125 1.5540089341511578 0 0 0
70 2 25.904687228910284 6.942724635354308 7.675440187475359 -1 0 0
132 3 8.700526203091403 9.209526078293743 20.400903766446866 0 0 -1
138 3 1.648864508721908 8.422504352978834 2.889992694520388 0 0 0
148 3 8.262412681285053 7.633749846094725 21.39098417450574 0 0 -1
81 2 5.817264551130816 9.33933034139926 6.895455881442327 0 0 0
133 3 23.06116427301196 7.873752798222527 24.57687378718952 -1 0 -1
135 3 24.042029352366306 6.738626444920429 2.9295975164432972 -1 0 0
129 3 5.380113456187775 7.922996265766413 24.073529044220173 0 0 -1
22 1 9.352485329974503 7.09461574493312 4.930036425518919 0 0 0
181 3 5.746823806783281 6.602238950187801 10.76729244221318 0 0 0
40 1 9.546344997747589 8.68881011019915 2.7684980555940837 0 0 0
190 3 3.982982138849319 11.897657864851222 4.775773731782488 0 0 0
28 1 11.830754114524076 15.196453478021809 23.484073744930534 0 0 -1
186 3 9.089444548522195 8.489159374336548 20.434352576506818 0 0 -1
25 1 9.288853287930483 4.835434326037353 24.96648519896214 0 0 -1
88 2 9.340213871379799 10.747238563353376 7.276602189553535 0 0 0
99 2 9.62204686234028 10.582349914235708 24.406116060437164 0 0 -1
187 3 8.426584518261112 7.847469274679631 21.79533713582498 0 0 -1
189 3 3.97781366735017 9.295283322120763 2.2170023730086594 0 0 0
182 3 5.109111261173332 7.645340200853638 2.0468718170146976 0 0 0
183 3 9.705510824079264 9.468921016269514 7.702149575377838 0 0 0
1720 4 10.282728390775153 2.507029000659619 2.1406678670018056 0 0 1
1740 4 11.851721573118734 2.3058439335123175 3.3358702725150926 0 0 1
1742 4 26.012800194602534 8.75172286490631 3.4463549404408593 -1 0 1
1714 4 2.944805245043571 26.13586590268301 4.385737492179034 0 -1 1
235 3 17.37567521188396 8.783590314930851 24.545218345059418 0 0 -1
100 2 15.74756118646026 8.321671580730886 3.144480756850679 0 0 0
238 3 9.814222731711405 3.754879051774893 22.17078480689893 0 0 -1
244 3 11.855490502665793 3.661127929229446 24.3331949554834 0 0 -1
43 1 7.531118641691481 9.547424725542674 3.8350693451550026 0 0 0
240 3 11.671441178988736 9.546956549652705 3.464207977937571 0 0 0
246 3 9.15837188933778 5.811630528221234 24.163281934396004 0 0 -1
370 1 5.8912979499923805 5.136616990312242 3.264135422915579 0 0 0
1718 4 12.483186401954017 14.66972931769051 6.17490721039211 0 0 1
1717 4 10.507532285298671 7.748051766877547 25.04966130359567 0 0 0
1747 4 10.07436906669972 8.544792817929368 8.831099696146362 0 0 1
1745 4 15.076718708559577 8.71320128972115 8.33705753635087 0 0 1
487 3 12.306471058596207 5.676962398421969 1.4475410703534195 0 0 0
491 3 15.562561337717288 3.9363281018682246 1.5538766663370007 0 0 0
496 3 13.586654680801841 3.4108923767690023 23.97723426246195 0 0 -1
541 3 23.603046983611335 6.614187592421777 8.578301941694406 0 0 0
243 3 16.67607425462426 6.934276021124684 24.279786897800932 0 0 -1
367 1 21.794744835808103 4.514743760527994 21.89177722767691 0 0 -1
423 2 15.302991491601043 5.9792354607031095 2.0862842820730734 0 0 0
430 2 18.244304217986823 6.787775704740097 4.029901514581241 0 0 0
492 3 13.235973467439292 12.060297381497389 6.951973779290639 0 0 0
498 3 14.57398114539871 7.288763111128658 25.03919797617374 0 0 -1
509 3 16.154000356771274 12.177632294149864 4.870391173421758 0 0 0
439 2 15.859839252352616 10.026453416344093 24.814662009137095 0 0 -1
493 3 15.858176738285202 7.955209131029035 25.131170702188463 0 0 -1
495 3 12.284963376911481 6.665714986174928 1.9612522922510998 0 0 0
488 3 17.179931834942813 2.84047888047746 24.466540383564904 0 0 -1
2079 4 11.925578456604152 24.110269723099123 7.241860467226254 0 -1 1
2082 4 16.78694016715583 12.332481545432508 9.377293508629432 0 0 1
2115 4 18.18347577150348 10.529867197119716 7.937043424023971 0 0 1
2106 4 12.094707727398655 12.045826683444089 8.40093946353872 0 0 1
545 3 23.705664135405947 2.5708065808324445 7.054378018973298 0 0 0
440 2 21.531130218311787 2.8454983182920834 1.8988149561629826 0 0 0
544 3 18.376483031431356 3.526510502939584 22.02926996663446 0 0 -1
388 1 20.093566582398125 10.245984954802921 5.238980553312993 0 0 0
441 2 17.21827187775854 4.835247388343099 6.709115040278129 0 0 0
546 3 21.534494903825696 8.682646512535005 10.41356006413204 0 0 0
552 3 17.57057275695192 6.24765849241969 23.067230721246474 0 0 -1
385 1 18.707785416525198 11.31572076788785 2.256197510456383 0 0 0
446 2 19.560731741482797 7.980705539123147 3.032797910205513 0 0 0
448 2 22.551852899050964 9.007338082396194 5.84783949147477 0 0 0
549 3 10.169145793753183 12.005148771839224 16.543370363618813 0 0 -1
562 3 21.087442359211302 8.457645758477485 22.64038105285462 0 0 -1
387 1 20.684369289639676 10.671216762493058 3.5398334710054704 0 0 0
2108 4 19.141605969210183 5.283640531821875 5.940814351608418 0 0 1
2105 4 20.057833617010402 14.184003035045757 11.71509148615952 0 0 1
127 3 2.0829535967852673 10.515026532736387 3.588844002255569 0 0 0
400 1 24.343152107305485 5.26480319553758 3.6797012078514686 0 0 0
595 3 25.12176881618816 6.439884816889995 24.47570948977964 0 0 -1
599 3 22.50282871624521 6.703489779562992 23.632811452515604 0 0 -1
460 2 22.288978911851714 5.97100994622143 3.8320522014038776 0 0 0
598 3 22.513307697599572 3.03414274743644 24.75895741168415 0 0 -1
604 3 1.5207947533091855 4.164398457927565 8.41953840819674 1 0 0
459 2 24.403016903878985 9.61923748654213 5.1020022684011455 0 0 0
403 1 26.27518913962041 5.241947876695995 21.625949471799167 0 0 -1
600 3 23.274396743143022 6.9596022599931615 4.905318044671713 0 0 0
601 3 19.269466227796784 10.304389673281918 21.85099322764588 0 0 -1
603 3 4.056045771698599 7.76987240811122 1.7626496518742951 1 0 0
410 1 2.925401422724713 5.9719458217945665 5.264843152377184 1 0 0
597 3 24.722884628076436 7.978283192724006 3.824481406042703 0 0 0
2107 4 25.657655063601126 8.3640361833056 7.248878261278837 0 0 1
2110 4 2.772677578129007 15.012959107459034 8.946587762155513 1 0 1
2098 4 21.811581665175872 8.798082921064687 1.8464270000372565 0 0 1
10 1 25.86854624686064 14.095969770978263 2.1601232557719126 -1 0 0
68 2 4.686232002837071 14.396187598906128 2.490050603982706 0 0 0
149 3 4.324105456990102 7.200053399906889 24.212181467794572 0 0 -1
13 1 26.128430202822884 11.815942165297724 2.942390213936717 -1 0 0
145 3 4.742500589146887 13.431925589356668 24.03261100908403 0 0 -1
150 3 24.42838895389213 11.056052538244181 2.4814066874313463 -1 0 0
154 3 2.8429430092872234 9.303745284571484 24.785973381864594 0 0 -1
85 2 7.479122023891304 8.959982151432946 23.427938394210436 0 0 -1
87 2 5.311302733839426 9.926447705663113 23.681369673072403 0 0 -1
151 3 5.3075592020242475 11.550054867157627 2.580785324477738 0 0 0
153 3 3.245533621449999 12.924002500863477 22.8449524416382 0 0 -1
199 3 2.44317242398687 14.242119794977645 5.435018880824171 0 0 0
832 3 1.5577017842707843 12.471624959801572 1.482611637866677 0 0 0
1118 1 26.03422993027032 15.152900377427233 24.841670319865905 0 0 -1
1713 4 24.1355177444294 15.922454406837923 8.808304258156252 -1 0 1
46 1 7.878932946289614 13.019055943703146 4.48850387622856 0 0 0
86 2 6.700869632650451 11.964873888786194 3.093327282866994 0 0 0
202 3 9.983845217402726 11.33854783635971 20.022443575731486 0 0 -1
204 3 4.282895119075979 14.656155970393796 18.929522223322508 0 0 -1
210 3 9.543105094118433 18.39591825087711 24.78827744894383 0 0 -1
31 1 8.154708334855572 11.376784351318744 4.0106825198481335 0 0 0
52 1 8.139279863774146 9.909990729840843 2.2633358470420726 0 0 0
105 2 6.184376933951395 10.003330008421548 3.3976988939636152 0 0 0
205 3 7.036350260007542 14.450364021537453 23.843940347201872 0 0 -1
208 3 3.5959734629919216 11.715702912330295 23.611860280949934 0 0 -1
796 2 6.658017562432045 12.099785380392738 6.7260961981412555 0 0 0
33 1 8.53075170808797 11.921814687354752 3.538721083208294 0 0 0
1712 4 6.978925820222734 13.5063907699724 3.858465111538371 0 0 1
106 2 13.718036033803243 9.17815223632718 4.287728562755017 0 0 0
256 3 14.668972134334373 10.602740044113318 2.239974425619367 0 0 0
253 3 11.505669163181611 11.43502889895563 1.848264433165249 0 0 0
49 1 9.36990495953491 12.336036080888539 2.3316359400438227 0 0 0
258 3 10.97840706052346 10.556896395268929 21.427613343618326 0 0 -1
261 3 14.815244318685567 11.07248165977419 5.430492348152697 0 0 0
262 3 16.703018772073214 4.6082350881985885 24.388890872188377 0 0 -1
264 3 20.327265914607544 21.871540947757204 4.427296630112481 0 0 0
429 2 15.151046963052947 8.431733858326554 4.027094511694325 0 0 0
505 3 11.781587568487351 14.380086274186247 19.346821701327798 0 0 -1
812 2 12.627771780484427 12.689810524398112 2.9745311671437595 0 0 0
814 2 10.942457713261655 14.430726935067192 7.353873231984349 0 0 0
1711 4 11.7249234119753 9.812760772796745 4.117631771317159 0 0 1
428 2 13.089543605983245 12.72676843387104 21.894171822175174 0 0 -1
508 3 17.689096636445207 8.353462536855957 3.4578349339845214 0 0 0
259 3 15.068487759136476 12.160907507511858 20.986096071514154 0 0 -1
373 1 15.98189022406907 12.356000647120446 23.48049259168443 0 0 -1
427 2 13.347738965541234 14.480964814660892 6.169275197327445 0 0 0
510 3 13.368165507624989 7.209349329046147 13.39001949305078 0 0 0
516 3 20.045094309332725 17.30323147928458 20.93905629525551 0 0 -1
447 2 14.216203713884212 11.55965581225566 5.174102770143614 0 0 0
511 3 16.237772040388442 13.69970652083826 4.790111074837235 0 0 0
513 3 10.045400842740365 16.47978213306364 7.481345953291848 0 0 0
1732 4 14.670005905001107 16.98959149923003 9.036913421288336 0 0 1
2073 4 19.60717126716034 6.766271410324922 4.313786949362841 0 0 1
563 3 20.3915731386082 13.29792034317975 9.902708775290241 0 0 0
559 3 17.923009764095752 11.892894522865868 23.494191741293854 0 0 -1
564 3 15.429769626765243 5.199373715713478 24.995842753067073 0 0 -1
570 3 22.70932840774377 13.602820944339372 16.689884385470048 0 0 -1
391 1 19.419760308546955 11.63252974950022 5.22519408860334 0 0 0
463 2 22.5640945109621 12.694410099950193 8.373303146857644 0 0 0
565 3 22.649346336932503 10.404257981229376 2.7418561369869954 0 0 0
568 3 24.05505984401661 17.136638229161846 2.072680276226462 0 0 0
542 3 24.7113567276157 14.94542028033214 2.2489533653790414 0 0 0
507 3 17.457617818449776 8.03328291726201 6.11951406924542 0 0 0
2094 4 21.758980193974004 14.661108035906588 2.1499281962120587 0 0 1
2807 4 18.11193410417001 14.38799598345461 9.771242283669245 0 0 1
2804 4 24.477828218066755 17.909375182050006 24.43794113228892 0 0 0
2806 4 24.069577729673888 8.901424151112286 11.002448596986238 0 0 1
406 1 19.033113215769227 8.45414800792359 4.32435805745423 0 0 0
617 3 24.635742420365986 11.06607790374536 24.48599416880488 0 0 -1
466 2 21.095647819828926 11.640883985393494 6.202243185365011 0 0 0
616 3 20.36179290040772 13.820542139142603 22.31023139823482 0 0 -1
67 2 24.104239327766088 9.094465552537297 2.2706509869495517 -1 0 0
69 2 25.366802838958684 10.140124974471057 6.485424318220815 -1 0 0
465 2 23.31526660363837 14.56886620340739 5.765256521572753 0 0 0
613 3 3.9091914782856043 11.615939786296865 1.8641776459564234 1 0 0
409 1 2.713608196276908 10.090752222112274 21.670385666161557 1 0 -1
618 3 2.0010126039118754 14.79520815913657 4.953394925070247 1 0 0
619 3 1.5677013468702707 13.170655583713481 24.87927855662349 1 0 -1
621 3 3.2806692613790753 8.888686712780608 24.811566738795413 1 0 -1
622 3 6.921637986168513 13.340374129303763 24.460740306053225 1 0 -1
1174 2 20.666367663603047 12.572279491874207 2.825378452604739 0 0 0
16 1 2.2789139853455556 17.108171628430284 24.085568866489375 0 0 -1
34 1 25.264064253139544 11.929072109493903 23.32798004475199 -1 0 -1
721 1 3.6719978870222767 17.15357386969628 4.334169411779465 0 0 0
777 2 3.450383348606403 19.376389583099247 8.811107967865752 0 0 0
778 2 2.221547134909514 15.429506508925858 4.670687839085726 0 0 0
829 3 26.248122222393725 16.502438694803025 6.178276800685336 -1 0 0
833 3 23.75337778830707 14.148236780909551 23.065140693120036 -1 0 -1
834 3 5.609940877604038 17.056680996621758 2.3273607346467564 0 0 0
838 3 2.9820011548409195 13.535534198121567 10.396679736307428 0 0 0
840 3 5.610684018706004 18.222002273651498 24.616403791130836 0 0 -1
850 3 24.331946009974956 17.785641603283935 22.804545860024852 -1 0 -1
835 3 2.795506422101825 15.051775006266727 1.4478017048670364 0 0 0
837 3 8.089607759595097 17.311125779806602 3.0169498779399446 0 0 0
1299 3 24.88544709645251 14.979958816881993 4.730144879396265 0 0 0
2445 4 5.3087380919330585 14.534002134721547 4.263927456777244 0 0 1
2448 4 7.3922493319810085 22.07573070632713 10.391634099157402 0 0 1
2478 4 23.77451167177952 17.40490837119819 8.247981604513589 -1 0 1
2442 4 3.389195559774032 16.125965081720633 3.6583347362242926 0 0 1
207 3 11.319640125272649 17.401687542356974 1.5808101289618188 0 0 0
795 2 7.1301327860374215 18.83066078196358 8.851638139626525 0 0 0
883 3 8.757859702207597 16.080948106602307 22.72517796349849 0 0 -1
887 3 6.489976962959606 11.966185176244393 4.821075812216453 0 0 0
888 3 7.478053994173978 17.48156914167422 24.031413409034826 0 0 -1
894 3 10.446553355138175 16.889361878218953 23.103304695241455 0 0 -1
739 1 9.461584995354578 15.340873562510199 23.088258791635475 0 0 -1
813 2 10.421098051397975 18.06024621250416 5.0191997625969 0 0 0
886 3 6.223261172075055 17.85461306111015 2.0027257990918903 0 0 0
892 3 9.701660340264151 20.229976795160567 24.667074328369523 0 0 -1
937 3 6.075843819276197 21.0680232920205 3.723815026185356 0 0 0
742 1 2.4620057889165303 20.62647754485058 1.898927462240956 0 0 0
891 3 6.36269911409305 17.54263522033503 1.8969214656336817 0 0 0
904 3 9.397576574638311 19.202039112824238 23.931324887554617 0 0 -1
741 1 9.104389459771234 12.748519891053004 4.951854780002764 0 0 0
2480 4 26.501968550042907 16.3851425782308 10.684275212187488 -1 0 1
2444 4 8.772926585524553 13.675497542430215 3.483632409359857 0 0 1
2440 4 5.118294913235612 12.112138588438153 9.67563058848979 0 0 1
941 3 14.64835706666213 17.304151510103985 2.808128590212023 0 0 0
757 1 9.992749581511209 18.336445212583378 23.209016189651635 0 0 -1
940 3 15.61290880669609 16.19007179875385 2.7358505526148935 0 0 0
942 3 14.702534741547547 21.39419779367492 12.357435057683064 0 0 -1
946 3 15.448518177054954 14.635989120996722 9.429713180994627 0 0 0
948 3 12.211894189512456 15.821943753126414 21.445291690641398 0 0 -1
1135 2 13.118179574152451 19.07101956622261 24.53969903288411 0 0 -1
1137 2 13.050681655673612 16.108817544890933 3.6245041347255627 0 0 0
1189 3 10.534379584019812 11.669741999208362 20.208043490092123 0 0 -1
760 1 12.402349316836203 21.920821478535693 3.655794518733206 0 0 0
945 3 8.13880155256831 18.608796277003925 10.454024444128082 0 0 0
958 3 6.319736352008889 18.966333724323377 22.29822269289886 0 0 -1
2476 4 15.400969241666509 15.614307612691873 4.569618456372686 0 0 1
2835 4 9.399183711548368 20.465705611460137 5.234116326159553 0 0 1
376 1 13.973710241480731 11.502655160239406 23.637093623788076 0 0 -1
394 1 21.43319822564694 12.86727375133339 3.4373210439847117 0 0 0
1081 1 18.203121908399886 14.720491904926597 2.1709997090494713 0 0 0
1138 2 14.660488850957144 16.837892252381273 4.152387251029278 0 0 0
1192 3 13.235733617667762 17.785827712511313 22.40120045223965 0 0 -1
1193 3 15.717904128507957 15.955353882911352 4.8693303891096615 0 0 0
1194 3 14.124439477388755 13.902924192626013 2.440511490801457 0 0 0
1200 3 14.658749122336777 15.675657023042511 3.2423940054434115 0 0 0
1155 2 16.894669581296885 17.074608532615876 4.122013216441363 0 0 0
1210 3 20.04506639434016 15.581207062413807 19.908939246629522 0 0 -1
1191 3 15.119941266884231 12.796054946244384 6.564035098865388 0 0 0
1190 3 13.782018901210659 15.026491441765609 4.372827630504518 0 0 0
2091 4 20.732110130140306 14.905914810926648 6.103704443435862 0 0 1
2841 4 15.38573858556142 17.639799105128894 2.979090003249316 0 0 1
412 1 17.812270504012027 13.802178414324178 24.325029232096142 0 0 -1
567 3 26.121155549914704 16.515178328905556 6.557145598344294 0 0 0
1153 2 19.487723421125132 11.134626131922317 22.866927012869112 0 0 -1
1243 3 14.22638068437559 16.347812505295934 1.6626894047171143 0 0 0
1247 3 19.19377348116671 14.2602496182277 6.509473538235989 0 0 0
1248 3 15.515235899426118 24.800319489641737 4.637596253899501 0 0 0
1254 3 22.615486996327704 17.357856953645662 19.398930697529195 0 0 -1
1099 1 17.974939636396314 16.722914419816675 25.00561507844347 0 0 -1
1156 2 19.637025177920343 16.05299339966419 5.059906741365378 0 0 0
1246 3 25.480907322695018 17.261968117614657 8.037476754055762 0 0 0
1252 3 21.7262317966144 14.174403167122893 2.2577803005315156 0 0 0
1301 3 24.83559870596916 14.025388088320456 9.945608720968703 0 0 0
1102 1 18.803302423444705 15.271501755858115 3.624472719417754 0 0 0
1251 3 24.43839411849173 12.022877167632423 20.36483522708096 0 0 -1
1264 3 18.237715635202022 19.815163531762003 6.524098592733549 0 0 0
560 3 21.662858990384606 14.816662239053763 5.584944964327552 0 0 0
1101 1 21.42146650557234 21.312484577638436 3.6557249389683477 0 0 0
2801 4 13.826806760334778 13.146324749216408 2.272613085666489 0 0 1
2832 4 24.06255318935309 19.205466279460737 3.1533972548360283 0 0 1
1173 2 26.455560748900595 17.09539402692063 5.336233463717746 0 0 0
1297 3 23.981023638167017 19.046954371429884 19.204027236557025 0 0 -1
1117 1 26.11770661558367 16.07442996096599 2.992436467327878 0 0 0
1172 2 24.231478894144153 16.23470972066328 2.290026896964296 0 0 0
1300 3 25.89809685489515 14.466783663865268 6.665572992458342 0 0 0
1302 3 21.9714871767587 12.509525463305575 22.717538549724914 0 0 -1
1306 3 21.055143305489977 14.113689214543346 4.52545450077978 0 0 0
1308 3 22.39298509065297 19.32384962498528 24.775077839106217 0 0 -1
724 1 24.513411147830787 18.050292726117235 2.640730247758659 -1 0 0
1180 2 24.710533515312726 18.64858672958762 8.424854286808497 0 0 0
1305 3 24.56085305245002 17.66084106767343 1.4618197176295094 0 0 0
784 2 4.534873420895174 20.015445334205083 4.606004334925522 0 0 0
847 3 26.316935744216437 19.629495966176194 2.4784170639658445 -1 0 0
851 3 8.047586896672488 19.495299468047683 3.2470134165276994 0 0 0
727 1 6.6628475674914025 24.078745834055965 23.426911273343876 0 0 -1
783 2 2.553842260544696 18.65526993306579 6.424977323130098 0 0 0
790 2 1.5384724962784075 21.583911594349892 3.945459486098338 0 0 0
852 3 25.311058602919054 15.075461083187468 4.698846421676777 -1 0 0
858 3 24.323154476654658 24.95971060036465 24.596753680558166 -1 0 -1
868 3 4.554533803889627 15.884293194581002 24.74945578172472 0 0 -1
869 3 25.665641035849582 24.56875374253478 24.15540807002288 -1 0 -1
801 2 5.71107132621549 19.289156381104767 8.757910953876765 0 0 0
853 3 6.591144551238263 16.996125320005753 2.641750689074599 0 0 0
855 3 3.2332366812671647 26.497037185592056 4.195149817298283 0 0 0
849 3 5.330143490524051 22.08288689590229 5.7067448065405255 0 0 0
901 3 10.522167391562807 18.07306445155578 23.846292740526998 0 0 -1
802 2 7.3541621008534 18.327621162610086 6.533245796598319 0 0 0
889 3 8.808233951609573 19.55631674733489 3.3242807792052527 0 0 0
910 3 8.174376941029006 15.420509274685374 23.870528091003536 0 0 -1
748 1 6.388499460059491 18.59736848367573 2.2704244603311636 0 0 0
906 3 7.1237724772383455 19.965255362606953 2.324275078210755 0 0 0
745 1 6.60708474880783 24.32151720107614 22.086652673529485 0 0 -1
766 1 6.622965003932662 18.966609129290433 22.525985605071156 0 0 -1
909 3 7.771377149678955 15.98160343447473 24.96104068716342 0 0 -1
2465 4 16.47190869833911 21.26326216842159 8.401237679289325 0 0 1
955 3 10.885096346493524 13.008995513655668 24.722817429580275 0 0 -1
818 2 11.9626693180189 20.778658948265225 1.9390692145510657 0 0 0
820 2 9.525745690077226 18.729530463279808 5.735004390489986 0 0 0
964 3 18.26367530405515 20.165672405032154 4.348467130593006 0 0 0
1084 1 10.911114246143727 21.221079010869175 5.765647200847562 0 0 0
819 2 13.069778492711144 21.289122710940852 2.5675725284298094 0 0 0
763 1 12.617355474983745 22.772176753749136 25.086270127001818 0 0 -1
824 2 11.713446564802569 16.685487741505156 3.0591134269245126 0 0 0
960 3 11.828546806011898 25.3491009541667 7.38590978983018 0 0 0
961 3 18.89581815129199 23.081318970284514 2.6475169454599525 0 0 0
963 3 13.781835185452596 16.568951733198475 21.773970471356805 0 0 -1
1141 2 9.019396245908421 17.305566435017795 2.598792390146635 0 0 0
1143 2 10.578876410610931 18.88175031470133 4.328892910548056 0 0 0
770 1 12.60344306979684 21.774439895006637 25.047416371605358 0 0 -1
2471 4 10.475805679366161 21.190255885061447 1.805419900756851 0 0 1
2470 4 12.422677918280511 23.031465896824706 13.11078156459418 0 0 1
2802 4 23.37757478499271 21.218536826662536 2.1255570700613826 0 0 1
1144 2 16.755684065333433 20.126315342476055 6.234056652160581 0 0 0
1207 3 17.916842218361865 22.475562588540363 24.600880986428507 0 0 -1
1211 3 14.054418577026587 20.84489781085638 25.07211478456248 0 0 -1
1216 3 15.142814044907672 21.682619233777743 3.6736196813070894 0 0 0
1195 3 14.225886450159402 19.18345628707062 6.100312357026017 0 0 0
1197 3 16.904632903521026 16.671548252255214 6.006480510507807 0 0 0
1261 3 15.006309859483284 22.58275337210212 22.24930376912753 0 0 -1
1087 1 16.70659517842827 20.50222107369723 3.448141078102863 0 0 0
1212 3 12.9931883184133 20.150453711848527 7.933379469546676 0 0 0
1218 3 12.604247553044141 20.464084456635568 19.084172452439788 0 0 -1
1108 1 11.968421312308063 20.33276785413691 23.369211306861267 0 0 -1
1161 2 21.304944975313333 22.04517630472816 5.530547016123143 0 0 0
1215 3 20.193384696412352 24.024604162990975 6.61911047001006 0 0 0
2829 4 20.254442118241876 22.218374409683683 2.549855232089784 0 0 1
1265 3 20.296531042733967 22.214492678628282 6.835223308561809 0 0 0
1120 1 20.69723410370662 18.821383243730075 4.081818676202939 0 0 0
1162 2 22.80555909363469 19.226727420176303 8.247297035312274 0 0 0
1270 3 23.93320017486186 14.398274775554748 6.202540052675052 0 0 0
1315 3 19.39113434688879 21.857962417779312 22.20095312598123 0 0 -1
1266 3 14.79812456842348 22.445648616036316 1.4327784228544649 0 0 0
1272 3 22.521395242112824 21.15279431391204 10.003822251420774 0 0 0
1283 3 20.530973814502687 21.734855625219538 2.4946925039524013 0 0 0
1105 1 20.02267816461712 2.0598528356395684 2.921430595698774 0 1 0
1168 2 20.578125578935747 20.910311367134504 2.91680551718949 0 0 0
1177 2 22.50724432962634 20.73791593822081 4.07112078999616 0 0 0
1267 3 25.247394755023876 20.502187880949606 23.722513328662117 0 0 -1
1263 3 25.604808410717247 22.807916591341588 3.547507549204297 0 0 0
1178 2 26.36984348520057 18.060013199596128 2.9013534905120317 0 0 0
1318 3 23.380565106475416 17.82640773651518 7.929817153021544 0 0 0
1324 3 20.66327841882743 21.459487259545384 2.753541104566282 0 0 0
1179 2 25.853233978587568 21.701332773358757 4.869802873374498 0 0 0
1123 1 20.81826511410025 21.623547010001353 22.409418773542477 0 0 -1
1320 3 24.841378163996687 25.240261757223315 24.908857063453404 0 0 -1
1321 3 17.212974207776394 19.092618797165244 6.1215418118279885 0 0 0
1326 3 26.03210560952484 20.669201420701377 2.9432588873116092 0 0 0
1106 1 24.423975872330885 17.10443807230493 24.299403860781524 0 0 -1
1298 3 23.32221745570631 19.161448115605253 24.761860756813164 0 0 -1
2830 4 24.512223602120642 21.201788633194774 2.6584138696213087 0 0 1
2794 4 2.343332233195012 18.725110087839077 9.261243894321042 1 0 1
112 3 6.093164216990625 20.632449658182217 23.449188208357242 0 -1 -1
730 1 4.870777060234529 24.48006584086042 23.70842847561068 0 0 -1