LAMMPS data file via write_data, version 2 Aug 2023, timestep = 600, units = metal

2880 atoms
4 atom types

1.4285065988257095 26.591493401174276 xlo xhi
1.4285065988257095 26.591493401174276 ylo yhi
1.354073349921789 25.20592665007827 zlo zhi

Masses

1 24.305
2 28.0855
3 15.9994
4 4.002602

Atoms # atomic/kk

1 1 25.853179075030948 4.992978045217786 1.6768342413690007 -1 0 0
58 2 5.161282599270443 3.662943988639108 4.406215712246907 0 0 0
113 3 3.4193280796668626 20.493818881838973 2.389824712153938 0 -1 0
114 3 26.576219697146975 9.082912063436464 24.002588042463458 -1 0 -1
118 3 8.104663761347423 25.041681597374808 2.466826851354561 0 -1 0
120 3 24.08932835585888 2.606455943896928 4.008253919531319 -1 0 0
1725 4 4.983402533374729 7.970566213021858 23.79573444158982 0 0 0
754 1 4.734873022391501 5.286854489175184 1.3585654486926801 0 1 0
117 3 7.444254732922104 8.01864966959743 6.217281162551841 0 0 0
1721 4 11.498319641666479 4.26196591391191 5.750023047327145 0 0 1
2450 4 12.271694509251665 8.509717927284605 2.878029762351049 0 1 1
164 3 9.831517233901545 22.787881754379548 2.7152275106859185 0 -1 0
163 3 11.663835669420791 1.9468139580835495 22.374281665448247 0 0 -1
167 3 6.873713844722472 24.778002709942434 4.871728567112375 0 -1 0
168 3 6.565931207354992 5.131407418992774 5.284423289558932 0 0 0
73 2 6.281325314833385 2.3959457138656566 2.9000871742544967 0 0 0
75 2 11.05265944747737 7.580076802976803 6.4441857930435145 0 0 0
166 3 8.159883133979118 25.88036611476488 18.749062237617625 0 -1 -1
1764 4 5.852430636894344 7.751355580927227 3.378330128191113 0 0 1
172 3 6.1960702097253195 24.996231017914035 2.743292391017912 0 -1 0
217 3 9.57830980135105 26.524015093638976 20.805201576427148 0 -1 -1
772 1 10.759041798562873 2.2038594113810936 3.185009659658893 0 1 0
19 1 6.866648637126844 4.427889527849965 2.416869004784106 0 0 0
76 2 6.115987681364601 4.712078444177784 6.908089018985263 0 0 0
1724 4 6.747033441056248 2.9075836335115546 5.244996294122424 0 0 1
169 3 12.895961174510601 3.834335645532057 1.4767304173488258 0 0 0
171 3 6.721126458556647 25.14354295110334 8.498628671297793 0 -1 0
184 3 7.927454333832239 8.669667028947291 20.64674171143303 0 0 -1
80 2 7.776942867661265 6.468695754418873 25.06599960715965 0 0 -1
82 2 4.129983592016355 8.421575259960601 5.32052332550297 0 0 0
93 2 10.652739324332329 4.744505329769119 7.275695345218079 0 0 0
220 3 9.450450270198662 23.931892721720097 5.846518215272039 0 -1 0
222 3 17.053177925946365 20.85531671476971 5.014392264019413 0 -1 0
226 3 15.848655116494852 1.8452439226768491 3.272746331025642 0 0 0
228 3 14.446506223274978 6.927763676173089 25.14707117655849 0 0 -1
37 1 7.727730558636761 3.3395687510616847 2.548714369204864 0 0 0
94 2 7.626107597058483 5.423871810027865 7.224755056747392 0 0 0
469 3 10.648038478901464 26.220255629606584 24.841660439287875 0 -1 -1
1756 4 22.23099349399533 5.0985687419216 24.585859294676546 0 0 0
239 3 2.3860164309475933 6.2397555956298545 5.519986887770454 0 0 0
1762 4 4.728990295551749 7.6859077620855 3.4741637673622603 0 0 1
225 3 11.045806255216196 9.725848285561725 22.529802656258873 0 0 -1
364 1 14.616079593979899 2.637671398897471 7.145132061948536 0 0 0
1226 3 18.281425531778268 3.6125264542704807 8.454858052315304 0 1 0
471 3 23.317294906923962 5.969336819113652 25.14715144934684 0 0 -1
361 1 18.703745184560084 4.796221187267606 4.517493050188745 0 0 0
415 2 14.0156555597261 1.9333321493953148 2.667765098566932 0 0 0
417 2 16.547148431540236 10.006813364621332 5.994472427472334 0 0 0
418 2 16.868162917077214 25.596820476104256 7.658763224614558 0 -1 0
472 3 12.744513556927258 1.660758139862699 23.431957706749685 0 0 -1
473 3 17.904002903308033 3.3014377032467883 20.561936559624684 0 0 -1
474 3 12.339534313337467 3.7631276671559872 23.38449152113287 0 0 -1
478 3 16.80602417729154 8.722178545992673 23.575380434322195 0 0 -1
2085 4 17.513619723376756 3.1659401342185842 5.086660680515387 0 0 1
480 3 16.23373779589469 2.827792930195444 5.444535276935215 0 0 0
433 2 16.16783059334128 4.749528078863602 24.68620305858767 0 0 -1
435 2 17.72432260610201 1.6919720971535845 4.192478519689303 0 0 0
223 3 16.245470151144836 6.435999047346374 1.3607385178773177 0 0 0
424 2 18.07260624014934 5.688774450266793 8.001997487453757 0 0 0
490 3 14.480386856207497 4.758335318863866 24.676295593870716 0 0 -1
477 3 16.510846526760524 10.292564540557647 3.6008355244702406 0 0 0
1280 3 22.727504447129615 4.74216057252035 5.884585378001802 0 1 0
523 3 20.64368135381388 8.05753152915073 2.251543668300868 0 0 0
527 3 20.765929321613743 5.271648849805599 3.2285782800066287 0 0 0
528 3 22.065255272732927 5.512926862562654 3.2879050864355253 0 0 0
534 3 13.91624354647032 20.510972306509984 5.538084376211307 0 -1 0
379 1 19.196051116284366 6.657631323340303 22.274155522104213 0 0 -1
526 3 18.650793342656865 7.519992253329338 6.2378587548205084 0 0 0
532 3 21.194569801058567 3.0025707663916603 21.749360740831683 0 0 -1
453 2 24.683579112575057 3.461301700436442 5.680912253215877 0 0 0
577 3 19.653456280224976 4.542998098398817 2.22686708672087 0 0 0
382 1 17.427695714540974 5.35850682542145 19.82524235306441 0 0 -1
531 3 24.58468906074806 3.2897989848465405 23.359438157675743 0 0 -1
442 2 22.515197427262734 5.538267124277626 6.110658365349539 0 0 0
1334 3 4.906114153082519 25.259986973881773 4.477677696742795 1 0 0
579 3 5.770493769007799 2.011814257447013 3.7746584789286253 1 0 0
57 2 22.936489142673246 3.4739314261430283 7.4128833670906875 -1 0 0
109 3 22.22913244022294 26.301141406639065 8.774449091882413 -1 -1 0
451 2 25.192065919977626 1.9686391530275185 2.683596796817754 0 0 0
581 3 24.645509717178303 23.867376952686467 2.1692986693897023 0 -1 0
397 1 23.434644849700636 6.274130306707276 3.7724823763373796 0 0 0
454 2 24.429276701210327 2.4019924592290565 3.3853299602648623 0 0 0
580 3 26.577656521074488 1.9545523526242816 1.6373395448709183 0 0 0
582 3 20.12207046839017 5.496775986814517 24.26553127891373 0 0 -1
2086 4 1.9477484369945492 25.674351081223687 24.824174242758332 1 -1 0
4 1 2.9866655273064486 1.6209477394988934 8.594467272924087 0 0 0
585 3 19.85202672250279 4.338437109349492 24.522784602775097 0 0 -1
70 2 3.5224759395263296 6.721148416677258 7.849508412272921 0 0 0
133 3 26.42318515242924 7.648388777613029 1.9649398555339712 -1 0 0
135 3 2.5015037882372955 6.1409986581856915 4.276272461930955 0 0 0
81 2 6.1704806099776475 11.22595914234176 5.236531912989615 0 0 0
129 3 4.659099752913908 6.58224579579929 5.3339151356907974 0 0 0
130 3 25.97725787960423 10.127168199770212 23.703077609809835 -1 0 -1
131 3 2.195395368899407 7.512645332200472 25.17666887683585 0 0 -1
62 2 6.740038798240925 6.36581719428843 2.6703297428282298 0 0 0
64 2 5.311317166331154 8.498647175829461 2.8033870825830136 0 0 0
132 3 7.972778967916195 11.372723941559066 18.263119100033077 0 0 -1
138 3 3.384677754849867 7.164901716176945 1.987538665288877 0 0 0
148 3 6.200142754653347 8.607538390069095 5.743982655703262 0 0 0
7 1 5.5367234194857895 2.4949503632712915 24.562931995168654 0 0 -1
63 2 6.149813497729643 10.409065455056794 3.3396633083537437 0 0 0
186 3 3.2296706262225507 6.0665934955748435 2.853172598628536 0 0 0
187 3 10.278042864376912 11.655518588310382 2.2207765405644637 0 0 0
189 3 6.547549963428386 7.719122350023086 5.422781901627351 0 0 0
25 1 6.482039765804498 3.6073485393475737 3.2086033499562663 0 0 0
88 2 9.202333989736605 10.828674028115916 4.1906097131523605 0 0 0
99 2 12.178555827993115 8.601974814194273 1.815960052012359 0 0 0
1740 4 7.2282137932786235 3.2120578799760886 7.619158378166296 0 0 1
1714 4 6.364610056065391 2.0557344069580714 5.864973517883511 0 0 1
182 3 26.550796738323324 6.547184678447034 24.03067159735152 -1 0 -1
181 3 3.461100768269726 5.995604310509581 1.7953144303267101 0 0 0
185 3 5.824108324394441 6.750728401202446 2.6335102097867575 0 0 0
22 1 7.196863397853645 2.7587539469129707 22.90476011862819 0 0 -1
190 3 6.280843493288058 9.470455330020327 3.6120498980908797 0 0 0
40 1 8.751467711490022 4.764125939648553 3.0404335016355 0 0 0
1720 4 2.5949920329637264 3.462396993521483 3.5441398566034175 0 0 1
97 2 8.343666400570722 7.462044558122884 3.96356418106874 0 0 0
240 3 9.69334006381365 9.627741079948638 5.198370801922935 0 0 0
246 3 16.76856475970583 7.718649347736529 2.736083004170575 0 0 0
43 1 8.819282362486698 7.641914706461623 24.545138840445542 0 0 -1
370 1 11.191348976144313 6.630547330200709 4.719970574983212 0 0 0
183 3 6.6865986878960255 9.394407157669303 3.9346315850146563 0 0 0
235 3 10.971947817019887 3.590944926553691 1.8051393470929806 0 0 0
238 3 13.308143867540721 2.830924281517478 22.566506353438847 0 0 -1
244 3 13.532919983165927 6.815143415429583 2.866705798446419 0 0 0
100 2 15.644866486780767 9.153079279687606 2.5131214296507727 0 0 0
1718 4 13.800412850247916 14.905477752437864 7.768838892367451 0 0 1
1717 4 10.342444596776248 4.860648481431218 6.5459868631773865 0 0 1
1747 4 13.24315771598412 7.28997856838024 9.73463724484764 0 0 1
243 3 16.90795355466359 7.030690065300845 3.5786043458480403 0 0 0
367 1 19.99386828622972 5.587440235134501 20.058499410562366 0 0 -1
423 2 14.427712032846312 6.345067363862302 3.8586746572916626 0 0 0
430 2 16.44777472908653 6.871098614528357 3.508816141166042 0 0 0
492 3 14.872996969265332 7.904420292001194 3.9321936124128682 0 0 0
498 3 12.512482381261918 9.165867663584907 3.7814661609670055 0 0 0
509 3 13.843667358972478 9.847394779819359 2.0352149955150582 0 0 0
439 2 15.25698928898228 8.835325045093448 2.4071977856915114 0 0 0
493 3 16.920499492148327 8.424993948994722 2.3007223340762306 0 0 0
495 3 12.898760512112231 8.828868224719859 4.054859422469735 0 0 0
2106 4 12.964513596656627 14.186359128676695 5.118894016230249 0 0 1
488 3 18.48115726489238 5.411674647521702 23.874138417211185 0 0 -1
487 3 14.811064870356821 6.034881231988717 24.61103263692929 0 0 -1
491 3 20.682127344466284 4.18043851033875 6.207400728522559 0 0 0
496 3 13.92657978308554 3.7408226864129146 23.73526575447946 0 0 -1
541 3 16.015584598406974 6.531567659585021 1.5364988868095448 0 0 0
2079 4 6.251852723212341 1.7436408939749444 10.712083694939352 0 0 1
2082 4 13.608204853607885 14.698009544576092 5.72091983849355 0 0 1
388 1 21.353750963486398 9.120118710794596 5.020481028521559 0 0 0
441 2 17.175371315851315 4.341493637538097 6.449542779938512 0 0 0
546 3 17.292369920573826 12.765356328699411 6.197289099211151 0 0 0
552 3 15.354826158245254 6.748672034098292 2.4939672426423627 0 0 0
385 1 21.35802638261146 8.305987551145822 3.6763529187052475 0 0 0
446 2 21.519938386934964 9.798120746303479 3.0499205283151483 0 0 0
448 2 22.132355312948974 7.758046715624633 7.48204880814846 0 0 0
549 3 20.811899194504743 12.983091435337466 1.941407549265486 0 0 0
562 3 24.654255331505286 12.622294671689302 23.960784887026968 0 0 -1
387 1 20.71198782979226 6.986146449285518 3.183534542075068 0 0 0
545 3 20.0271940134276 3.5431847172562008 23.976266804688986 0 0 -1
440 2 21.347915472810318 4.0140865692072225 2.195781833418115 0 0 0
544 3 16.872338072036015 9.377792140902326 1.900686517297305 0 0 0
2108 4 1.8559693595176652 1.8148859276998512 2.1847627560407243 1 0 1
406 1 20.414536007240248 10.2548104873024 6.616052457385903 0 0 0
459 2 24.313219821014776 9.720176890859136 4.050007413335956 0 0 0
403 1 2.820914884935468 6.232125873504661 2.0440876926469715 1 0 0
601 3 24.15488082860001 14.96296826701026 1.7279910152757785 0 0 0
603 3 2.325301794463192 6.884601469114726 2.7786394415377043 1 0 0
606 3 19.305198418177724 13.52224408527406 19.38355464894606 0 0 -1
410 1 3.3447403806391196 5.945749238794371 2.887603523851635 1 0 0
597 3 21.450328483692655 5.678877370524032 2.2722105729508466 0 0 0
127 3 26.395807811348178 8.918426398819356 2.00933291004882 -1 0 0
400 1 23.187826865164883 5.8862977796117875 4.636440997104444 0 0 0
595 3 1.8678541804509987 6.815312836093774 2.5471346392021723 1 0 0
599 3 22.109346925805365 4.11269775293679 1.918398846102854 0 0 0
460 2 23.807343438270756 7.38227571707908 6.595338099236538 0 0 0
598 3 23.11862397914506 4.869247269353054 2.9777644698375823 0 0 0
604 3 1.4329639762931519 2.006027786714653 3.5084915007129185 1 0 0
2107 4 4.908290683224455 13.809791021828502 4.1557804082464305 1 0 1
2110 4 2.262551598659507 8.627587003304242 4.859938094594094 1 0 1
832 3 4.161845996890263 16.543254614844308 23.882242625008434 0 0 -1
68 2 7.585186094369861 12.304956527841927 3.1654085086425137 0 0 0
145 3 26.39135327001933 13.385584015362461 25.01476688701492 -1 0 -1
150 3 1.7450704319160515 7.744073226086583 1.5102821803364745 0 0 0
154 3 1.909233505702201 9.738567333769016 2.001885139725732 0 0 0
13 1 4.306704135537866 11.66154164815669 3.943828817731188 0 0 0
151 3 4.829153041841755 13.187746696158907 23.86469695548431 0 0 -1
153 3 5.8699836225087845 16.279459992423675 3.6239438677640687 0 0 0
199 3 8.78233798220818 14.11527035353809 2.228779974343536 0 0 0
85 2 5.975512897860146 11.57059656871332 3.6374158783393478 0 0 0
87 2 2.8161905578028605 6.4906491689834205 24.732224575909292 0 0 -1
15 1 4.20451345469474 10.478762729118305 2.36852223726018 0 0 0
1118 1 3.3038148432267453 12.408945221141447 24.871139406228853 1 0 -1
1713 4 2.882910367495999 13.580307425960457 2.654720306615965 0 0 1
149 3 1.9343945511867637 8.104887196269086 23.28901968191217 0 0 -1
10 1 3.488925274378148 13.329795061962342 1.902399702484376 0 0 0
796 2 5.236828168934429 11.175646413103001 4.299139927426262 0 0 0
28 1 11.37772382174284 13.773315570640197 23.918634523393294 0 0 -1
202 3 5.343450586283687 10.373465916883813 24.01995450959983 0 0 -1
46 1 5.192874606800972 12.798196394404592 2.981959912996565 0 0 0
86 2 5.772751075882129 11.294886162250894 25.18999964618414 0 0 -1
204 3 7.68863191394187 12.320019018517044 25.04876213200213 0 0 -1
210 3 12.130560716709041 15.896845736901971 5.185700891300148 0 0 0
205 3 4.951599782607685 17.75729573027556 23.983967615505613 0 0 -1
208 3 5.126463884038539 6.890658313090987 25.11798144734723 0 0 -1
31 1 8.321166615059678 11.044818312604471 7.419351253655611 0 0 0
52 1 5.943458865281118 11.910427257081768 2.583112840876898 0 0 0
105 2 5.261284323073134 11.503301582365916 3.2776879598498967 0 0 0
33 1 11.737795509447981 11.795049882809645 3.5615093514920706 0 0 0
1712 4 5.319722439056994 13.14624707715621 8.449970608827607 0 0 1
812 2 13.877653234138354 11.947321557726369 3.9079722551944323 0 0 0
814 2 12.479963526426758 14.084819054620459 5.822249919542388 0 0 0
256 3 13.200047871495471 8.350237558505562 2.977958555064789 0 0 0
106 2 12.11261478784722 11.0690062556006 3.7971899748743954 0 0 0
253 3 11.554976110052161 8.613975383042677 4.61831834300725 0 0 0
258 3 19.658257418457065 5.0848967486632874 2.78730594594239 0 0 0
261 3 9.15476789428704 12.130929459210252 2.0930912573365146 0 0 0
262 3 14.728205296718334 5.993617263507595 2.2309137048697663 0 0 0
264 3 14.073343078210135 15.710183187085185 7.281976841641794 0 0 0
49 1 10.356000318857118 11.858182645995548 23.270161884091944 0 0 -1
429 2 15.19333082019465 12.665539574406916 2.817130041665358 0 0 0
505 3 14.999014637209893 13.511038636591152 15.384170096076085 0 0 -1
1711 4 5.710437709880411 13.972925215563405 3.174765636006387 0 0 1
428 2 13.651367142952736 13.892758785754411 1.9026523483958515 0 0 0
508 3 12.790203225790183 4.95322824777964 3.746629048813504 0 0 0
259 3 15.027883917010206 14.298256993361417 19.61907507460364 0 0 -1
373 1 15.733531878490457 11.81036090767578 23.361864495642163 0 0 -1
516 3 16.048577665018854 13.29265925933243 2.371436736223446 0 0 0
427 2 15.200927047887125 12.881739970150766 3.581168375681312 0 0 0
510 3 17.51600434923409 11.440668317160865 7.435023799050108 0 0 0
513 3 4.902412551830382 8.888363881388294 4.796293964377988 0 0 0
447 2 17.197633017021793 15.735626853981664 3.584567783069384 0 0 0
511 3 16.464058179050344 19.873806557921572 5.651693694701832 0 0 0
1732 4 18.25916300772999 10.50783222398266 5.772851134940747 0 0 1
2073 4 11.246136288413078 10.624079812893301 4.713473686564638 0 0 1
563 3 16.294524162948175 13.381526489446799 7.444824089349586 0 0 0
559 3 16.95691447851215 10.37163089830146 2.4338254692915147 0 0 0
564 3 20.156015049669556 10.055292079576688 24.900228276590802 0 0 -1
570 3 21.963363173161675 11.873869081776427 23.979580402265825 0 0 -1
391 1 20.443561450215295 10.862132580816342 4.5086292603335 0 0 0
565 3 18.67011066350155 11.359181105217168 1.5396063851107813 0 0 0
463 2 19.354763677532052 9.654193218254747 4.282605955633282 0 0 0
568 3 23.960375679251335 15.712731301984986 2.8173422680480544 0 0 0
507 3 16.363104938787863 10.441412711912546 2.2906766091341972 0 0 0
2807 4 21.541422286693823 7.14123807737119 9.430157491254121 0 0 1
2806 4 19.53522184304783 13.146344212417285 23.70222818530423 0 0 0
2094 4 24.308134016704766 14.123064044925327 1.4100455647231827 0 0 1
542 3 25.65890698462723 15.93199869350508 1.788477706169031 0 0 0
1174 2 23.908340633207963 11.241213126392475 1.6174187577690358 0 0 0
617 3 19.628599299688297 13.932714566353802 3.740453546418318 0 0 0
466 2 23.47323829960162 12.961675825153316 6.645156756729214 0 0 0
616 3 16.767549681223002 13.916469874273593 18.572156516910088 0 0 -1
67 2 23.321757051942466 9.978700402290249 1.4749140626284145 -1 0 0
69 2 4.359524129463697 10.42921794322091 4.723722603612018 0 0 0
465 2 26.002593315815304 13.653241392805795 6.675202400145698 0 0 0
613 3 26.394272870309333 11.57055515938882 2.7331134950728004 0 0 0
409 1 23.55038745672969 11.845421026660356 21.2535345164575 0 0 -1
618 3 23.027054856533884 16.881772241516423 4.35962589301075 0 0 0
619 3 20.743164873362232 15.183017533043929 5.746666105438256 0 0 0
621 3 24.43068988464849 11.188019707181283 1.9492466751960353 0 0 0
622 3 25.587381250181277 11.023609800864813 5.704870965664897 0 0 0
2098 4 4.734858102786133 8.194604190208743 4.336514873673547 1 0 1
829 3 3.6824102490268658 13.097076527781432 9.61523252632571 0 0 0
833 3 21.684666771590265 10.634820109874017 3.3527695713497936 -1 0 0
834 3 9.305579750568175 18.476966556335935 3.992205349590624 0 0 0
838 3 23.436913537949227 15.62198334128729 22.63648932837205 -1 0 -1
840 3 3.3478724196523455 17.88985310218452 2.5369252623501546 0 0 0
721 1 3.9293302558964633 16.066918847875485 2.606309135078586 0 0 0
883 3 9.355684674810352 18.154949904563875 5.602404702369763 0 0 0
850 3 2.2622033536784936 15.981788812091077 2.349237335035795 0 0 0
835 3 1.5020508825357073 16.30332557472943 3.3783621078212343 0 0 0
837 3 9.273145817708766 15.936480512246066 2.6044242538421045 0 0 0
16 1 1.896096481755084 13.841250929644234 22.963790527587122 0 0 -1
34 1 2.8023805905821497 13.200468872050555 23.081875113894732 0 0 -1
777 2 25.09507948231943 16.286383449078805 7.2480285688805495 -1 0 0
778 2 4.731207011633822 15.478464894797503 4.61848834219347 0 0 0
2442 4 5.209407199858738 16.671703168133263 5.740934654333743 0 0 1
2445 4 6.593627548031012 10.79552557146642 7.650626754455313 0 0 1
2448 4 9.995844710886413 21.248691715842796 3.9213480214237237 0 0 1
2478 4 2.6791192097926686 21.40887672863304 6.770498754971955 0 0 1
795 2 9.51613941259105 17.139340144139524 5.957567810486328 0 0 0
887 3 11.025886488947195 16.633030167445135 3.1350503985667246 0 0 0
888 3 6.3714475330294835 17.688815468370265 24.958919883767575 0 0 -1
894 3 11.087254162832705 22.220139956828366 4.833369373304907 0 0 0
813 2 13.57226385926667 19.621543647653024 5.639944284743483 0 0 0
886 3 10.451498634120286 16.346551392629657 5.6407378335592835 0 0 0
892 3 4.698656277076006 16.995195040737997 1.9183718535633187 0 0 0
739 1 10.104620517395977 16.739587018331488 23.66964855940117 0 0 -1
937 3 25.010117463487052 16.866309955678133 3.0175554787185574 -1 0 0
742 1 7.166601646464293 19.187179217290804 4.462039706136964 0 0 0
891 3 6.481207579808709 15.880692349416295 5.102258697407718 0 0 0
904 3 11.741355417334134 21.10201030806436 22.879466799510286 0 0 -1
207 3 11.341322631138254 18.088355209371066 4.237070052250659 0 0 0
741 1 4.383598409564856 9.549978430954999 2.9720563765996797 0 0 0
2480 4 3.1946257992446796 11.362928309679146 6.647863980837907 0 0 1
2444 4 10.845041175858793 14.070040877820805 8.258710636804594 0 0 1
811 2 10.004978356089543 18.87800190299037 2.501023241954307 0 0 0
941 3 11.9177798315447 14.381203805620776 4.730105231031849 0 0 0
757 1 13.913404546755457 16.91056817864191 1.951596157022501 0 0 0
940 3 17.480473959334507 23.175963102109403 7.324235342362628 0 0 0
942 3 10.548797044598155 18.89045519063668 18.973206683087334 0 0 -1
946 3 14.169436535464074 15.513595611128979 6.709348072196017 0 0 0
948 3 10.247570203871781 15.522339623574338 2.962954752350357 0 0 0
1189 3 16.11256330793418 11.694047640224854 20.262536427097444 0 0 -1
1135 2 10.960710088287257 15.558547136644611 21.919688904918843 0 0 -1
1137 2 10.618516482836267 15.944472770862115 3.8755612668006254 0 0 0
760 1 12.162881045757853 14.476560236499205 23.67203783128722 0 0 -1
945 3 9.782812763997374 16.07029865417593 6.930105528797007 0 0 0
958 3 7.138628037298459 19.890594873656553 2.142483508977538 0 0 0
2440 4 6.441287881274041 15.474653375663516 3.9097780135718256 0 0 1
1081 1 19.176387052842635 14.700563820128965 3.1224491975560094 0 0 0
1192 3 16.697389523451374 15.01084297169348 23.55684469209384 0 0 -1
1193 3 13.688800707556258 14.01941439314719 4.536380651258459 0 0 0
1194 3 15.706244046545166 14.047621958353131 7.731638558009737 0 0 0
1200 3 21.083124149040714 23.586690883130323 2.5828724037217516 0 0 0
1138 2 17.178525235321146 15.708769841378688 2.1958402267415202 0 0 0
1155 2 14.714905119412354 15.933538549103817 1.7416325970811104 0 0 0
1210 3 19.646271859565125 15.797675898280076 20.092807697382963 0 0 -1
1142 2 15.718300105315524 15.792567429446182 2.8425175592332264 0 0 0
376 1 13.172499955327616 18.934439800566775 2.1318986465543754 0 0 0
394 1 19.779873586548987 14.450284639409196 3.1012040652632606 0 0 0
2841 4 11.110722377056696 9.972014098830739 5.074888929857887 0 0 1
1191 3 18.187585803931288 15.937810406671671 7.620895751832414 0 0 0
1190 3 12.483308460939039 13.330164982483474 2.429199850665674 0 0 0
1153 2 17.200013554131786 11.096567196317906 4.801881331078894 0 0 0
1243 3 15.016209331066818 10.848897256096944 22.31736769290479 0 0 -1
1247 3 17.247958589813962 14.988458745300752 6.562971678455474 0 0 0
1248 3 17.04383753230598 15.412975083208954 4.844349120227571 0 0 0
1254 3 18.250391048718473 22.987608033611902 22.46847718426035 0 0 -1
1156 2 20.904666924135896 17.406171394073183 2.9795313304933826 0 0 0
1099 1 17.045242596852752 14.129639230223301 1.8914806582465558 0 0 0
1246 3 22.435086753635048 15.358479972585075 6.106382213931426 0 0 0
1252 3 21.6078403778592 15.25838468022335 5.395682193008623 0 0 0
1301 3 24.2802231201854 14.730160122626412 4.1084540499956175 0 0 0
1102 1 18.99029473050242 16.097011914720238 24.758503913442986 0 0 -1
1251 3 25.449976072199327 14.679720844300716 24.642591672294348 0 0 -1
1264 3 23.458311833490605 12.31521469432462 7.054865207453765 0 0 0
412 1 18.115557661931998 15.712110196268409 2.0102959474232285 0 0 0
567 3 24.81276569932802 16.089782894151078 4.667517298756457 0 0 0
560 3 26.5519492554013 16.15706237902642 2.97806343754334 0 0 0
2804 4 13.130226058789178 12.039798544903018 5.5572124546827215 0 0 1
2832 4 22.14708340389881 25.431532452918876 3.3920172795207275 0 0 1
2801 4 21.836698122441504 25.8904853435625 2.4851772899581746 0 0 1
1173 2 25.255545894407767 15.815218873592748 3.320697122800597 0 0 0
1297 3 22.883725080325068 18.206248883840168 23.68635454640794 0 0 -1
1172 2 22.93864927887169 15.83078990439627 2.444170329857064 0 0 0
1117 1 26.53102637333314 19.390855669513954 3.9652896353206155 0 0 0
1300 3 22.358536997639366 13.981258860075505 6.181068083651549 0 0 0
1302 3 24.38451912842729 11.700325881496509 4.255938523341493 0 0 0
1306 3 20.144881112368356 13.486864671500577 2.630892447197061 0 0 0
1308 3 19.820146966710997 19.25812641157918 2.509844496973846 0 0 0
724 1 25.520329874086336 19.79665852754457 2.3981301092210963 -1 0 0
1180 2 22.822973755332473 15.398347030827791 6.015964969271946 0 0 0
1305 3 1.7009703679246289 16.032820704414345 2.796861011316201 1 0 0
849 3 2.032727632939813 22.803875087678197 3.70431176381219 0 0 0
784 2 4.098346845454276 19.97584779608366 5.738792842863476 0 0 0
847 3 24.889589332771887 22.737818687015743 1.6284649659865922 -1 0 0
851 3 3.4379941514861816 18.75129860450763 2.8522130570507493 0 0 0
783 2 26.214176388649083 17.232092496122874 6.528130632989397 -1 0 0
790 2 3.0646989772700746 19.42647483875979 2.627897115123847 0 0 0
852 3 1.8962618651740426 17.64578069600955 4.388125647311525 0 0 0
858 3 24.21859021238654 21.053640855299662 1.3787308878226014 -1 0 0
868 3 6.0548691321581245 19.161820954577223 19.589718650177527 0 0 -1
869 3 1.4380704361079888 22.494961000234632 2.6515085792925275 0 0 0
727 1 3.6046242878010775 1.485552877076156 2.8444665000677065 0 1 0
801 2 4.022956891113825 21.753714642814437 7.823461409423243 0 0 0
853 3 7.103762959074421 14.551066117103623 4.381418081078258 0 0 0
855 3 1.7213701305886775 24.4179512040622 4.559239925962983 0 0 0
901 3 6.334115764312382 16.516910375866754 3.894030310932138 0 0 0
802 2 7.922811934257047 21.22205372521409 5.635884022318007 0 0 0
889 3 9.1634266063252 16.38714546552982 3.6204135942072906 0 0 0
910 3 8.558924678367863 16.345351286179024 3.1783574047680787 0 0 0
906 3 2.615517307174666 25.142338972843078 3.9124887657553398 0 0 0
748 1 6.643317601145149 21.84808647508669 1.9431465873147544 0 0 0
923 3 8.706553098571119 22.70062286215422 7.36100355281208 0 0 0
909 3 11.019231978885081 21.646409733430737 21.0220373604429 0 0 -1
745 1 6.45254423998293 21.454091953591472 2.5652916834610417 0 0 0
766 1 5.7969385339983 21.86743525492755 1.375096325026572 0 0 0
2465 4 10.454686134336288 17.971323644336863 17.86220552623112 0 0 0
770 1 11.675825171473882 19.862567343972593 24.155338288527325 0 0 -1
955 3 9.824713677932968 14.710831489377957 6.656561858403731 0 0 0
818 2 13.272747358730998 21.29801311420686 2.945460477807204 0 0 0
820 2 9.014461635745686 20.440655360060415 5.345656438250641 0 0 0
964 3 17.726702870941335 22.078197214699337 3.0851764964399058 0 0 0
1084 1 12.465784339331194 22.676722334078747 2.9295752932406915 0 0 0
819 2 13.425526763458002 22.164969489722996 24.95285487907452 0 0 -1
824 2 11.622766129507443 20.87442094432277 4.077376713107097 0 0 0
763 1 12.8653582815597 24.782204254684814 25.205803925063094 0 0 -1
960 3 7.956947654127127 16.01967421677554 2.9605734243048487 0 0 0
961 3 17.707545677581688 21.428483151360144 23.505803339338435 0 0 -1
963 3 14.145122809774659 18.248043678871117 23.90399677102527 0 0 -1
2470 4 10.956393930680353 21.345689222658752 10.953501857143637 0 0 1
1141 2 12.807134831095775 21.718574116600752 1.840646297248946 0 0 0
1143 2 12.397614672700227 21.529166203532537 2.385838500642761 0 0 0
2802 4 10.674208342792955 25.96574245049483 5.478690188284661 0 0 1
1207 3 15.642362615050024 22.0847485614966 1.4719554140878957 0 0 0
1211 3 16.439041958552718 19.30711240550567 8.195743903800697 0 0 0
1216 3 14.857298977611661 16.02475993013391 5.013003730533784 0 0 0
1144 2 13.260983445759948 18.552838285596525 4.940746316988648 0 0 0
1195 3 16.588104251129806 23.559888589381455 4.927970938918206 0 0 0
1197 3 13.934517692876717 18.243835282027394 4.13245639732786 0 0 0
1261 3 19.008037223573346 18.390689874257312 21.84813612215676 0 0 -1
1212 3 16.84888906002704 21.115103714083645 5.884500085912418 0 0 0
1087 1 13.731644871565512 18.144180966835034 2.567850782111948 0 0 0
1218 3 10.13693017075925 22.95339324677397 21.013858964030803 0 0 -1
2829 4 20.98149291211773 25.980643854368342 5.077464472468186 0 0 1
1161 2 21.956004039363197 19.44404093591101 4.822887987331039 0 0 0
1215 3 15.655979325158311 24.503673121308623 3.781070508791545 0 0 0
1108 1 15.094399172907389 15.969326345479523 2.2333920375792866 0 0 0
1262 3 15.369189813528902 23.32477789236087 4.241574801342896 0 0 0
1263 3 15.92301182137163 22.146943446855882 3.25062868750675 0 0 0
1265 3 22.34408987635596 23.28649550715817 1.8475494404878554 0 0 0
1162 2 21.94710564325947 22.01510754379576 4.909881071872575 0 0 0
1120 1 22.868972709168013 18.141267198319703 3.324240180146169 0 0 0
1270 3 23.00238539328533 12.983376320345775 5.62825696717281 0 0 0
1315 3 16.566548701663734 21.139932061997378 5.346740257751111 0 0 0
1266 3 17.60974327954968 19.33886548082534 4.570573565359824 0 0 0
1272 3 14.479055334668331 19.369445375295957 5.460257010425775 0 0 0
1283 3 20.49655170580067 22.44873348903363 3.0189820596822066 0 0 0
1168 2 22.389935994909717 18.148170992198914 3.0391836544962505 0 0 0
1177 2 20.590460930614533 22.65142924598943 3.7364557411801256 0 0 0
1105 1 21.744011480454095 2.248192249936854 1.9607241393035764 0 1 0
1267 3 3.1361625461812026 21.930925283297864 24.589159623505832 1 0 -1
1298 3 24.877921079213785 21.420573747979095 1.686399078082596 0 0 0
2794 4 6.2559428201116605 18.170121145906275 4.9618532902158625 1 0 1
1178 2 26.36833936947052 20.135167796551894 3.3107957809701163 0 0 0
1318 3 19.64775539257376 14.538646625567248 4.792702258085062 0 0 0
1324 3 15.631141292677036 20.459848741809726 3.0157972621724705 0 0 0
1106 1 26.247130415396413 18.156270662734805 1.7682184427438807 0 0 0
1179 2 21.741279090588986 23.229314361976463 2.2746344269962346 0 0 0
1186 2 19.748275089437147 21.44659415370106 4.679331311749319 0 0 0
1123 1 20.38480276556073 22.562322974014354 21.83540298659083 0 0 -1
1320 3 3.1155627489858326 23.66345325819551 3.257398140272526 1 0 0
2830 4 2.65372790772948 22.711907727645084 2.60053173132192 1 0 1
1321 3 2.457846104443539 24.122465289518026 10.471692612220247 1 0 0
1326 3 24.551507390065375 17.45941397643572 22.191780861258213 0 0 -1
867 3 3.1292250652075673 21.498418894496044 4.078939743703736 0 0 0
788 2 24.060066084043005 19.73970886128251 1.471652729464425 -1 0 0
730 1 5.803913234348566 23.910608793879753 1.7176845407185815 0 0 0