LAMMPS data file via write_data, version 2 Aug 2023, timestep = 120, units = metal

28800 atoms
4 atom types

0.2554599136768019 55.78454008632322 xlo xhi
0.2554599136768019 55.78454008632322 ylo yhi
0.3026862645992594 66.09731373540059 zlo zhi

Masses

1 24.305
2 28.0855
3 15.9994
4 4.002602

Atoms # atomic

1 1 2.567405000657796 2.3697802044330736 1.8526855612577242 0 0 0
58 2 2.5013230815438177 55.677392459747985 3.4213193853471395 0 -1 0
109 3 0.3106053402145502 2.0076610391073286 1.6466201488779018 0 0 0
112 3 2.515873598308248 0.7154498212008655 1.6626411829454408 0 0 0
113 3 0.9466106342422395 0.9427153310133507 3.561470291722701 0 0 0
114 3 1.7991367680410935 3.435722975735308 3.185716722816816 0 0 0
118 3 3.6577107075998727 1.8489667775138965 3.6335109866998754 0 0 0
120 3 1.1582966938957557 3.884304479676405 65.78127798729705 0 0 -1
115 3 3.3448214809131045 3.5970275040336643 65.85777489210001 0 0 -1
117 3 4.076667813741264 4.181894587045317 3.372037230761817 0 0 0
73 2 4.803072525980638 2.7108489008848915 65.50762793137817 0 0 -1
75 2 4.948084150878369 2.8252009449746813 3.2576657214099467 0 0 0
163 3 4.455526893643479 2.290032965858497 1.5004446141706442 0 0 0
167 3 5.788119947548137 1.395449078593975 3.4880326210215533 0 0 0
168 3 6.584268739141919 3.4678569995852992 3.1742983968529064 0 0 0
174 3 5.762623587387803 3.9499960313848743 0.348088771311413 0 0 0
19 1 7.271260932590382 3.0173355624252567 1.6397169956350783 0 0 0
76 2 7.386619722551627 0.3329213476256161 3.407631776562218 0 0 0
166 3 7.161567503019205 0.8677506007427641 1.300557041600364 0 0 0
93 2 9.567955930296883 2.3603349613812985 3.2619142539608332 0 0 0
172 3 8.11160823759869 1.7726261766094646 3.523982324840465 0 0 0
217 3 9.779467297586509 2.2276535499228705 1.4031106205982156 0 0 0
221 3 10.309088708979665 0.8147474688050743 3.5446612059427447 0 0 0
222 3 10.861224812958413 3.556531139352706 2.8529243371069586 0 0 0
228 3 11.229859857112599 3.592718068792714 65.64897461425132 0 0 -1
169 3 8.439280793998822 3.388051538003725 66.06330547570472 0 0 -1
171 3 8.702598893485268 3.789693525269094 2.741438493783614 0 0 0
37 1 11.78692212425916 2.6417435582156794 1.4656880001583554 0 0 0
94 2 11.798328786236075 55.669315947976344 3.2257034844045025 0 -1 0
220 3 11.551292478662575 0.7232370183268291 1.5843964739019054 0 0 0
226 3 12.519388652369795 1.766099957699473 3.7761227939058677 0 0 0
417 2 14.072945695319177 2.588966334633 3.403879772220163 0 0 0
469 3 13.84986835311035 1.9589742964607912 1.88014615355565 0 0 0
225 3 13.16188584204898 3.9813955576017057 2.949625692851885 0 0 0
361 1 16.79626789700153 2.5497416182694383 2.054501084463361 0 0 0
418 2 16.576078420003054 55.7676210068661 3.339218682658422 0 -1 0
472 3 16.27221180600483 0.8225427173214666 1.8141423142504343 0 0 0
473 3 14.91588342847987 0.8904591588929435 3.7306955497356253 0 0 0
474 3 15.448814454483315 3.288037982149718 3.201230700694725 0 0 0
478 3 17.244499821087217 1.7561432786997075 3.6853727449124825 0 0 0
480 3 15.694305670165274 3.1246005191681823 0.33494944094312196 0 0 0
435 2 18.723705256043793 2.627039320203983 3.44508665920879 0 0 0
475 3 18.271180695812454 3.659301905003848 65.56106484544557 0 0 -1
523 3 18.793438493590706 2.369707879836303 1.5203147913765114 0 0 0
527 3 19.74838249336011 1.3781658186781218 4.024481456155349 0 0 0
528 3 20.266851501880097 3.572335343884355 2.9976395403121017 0 0 0
534 3 20.700391326311728 3.5335469527806564 65.84093190314955 0 0 -1
379 1 21.5586746954482 2.7532906997223012 1.4288554194375562 0 0 0
526 3 20.635607434747005 1.0354807183686765 2.0710089034074803 0 0 0
532 3 22.249845030142705 1.741449110976 3.979013007326127 0 0 0
451 2 23.80511793170466 2.572516156541111 65.70402496818264 0 0 -1
453 2 23.567511862647805 2.6035481218833634 3.3724216600888393 0 0 0
577 3 23.452722699182626 2.204603356012182 1.6631041685302934 0 0 0
581 3 24.20277526306253 1.0787778212098535 3.790083110071683 0 0 0
397 1 25.9223020921172 2.7556749080211316 1.4653327776394678 0 0 0
454 2 25.49935547211261 55.71903059477309 3.2558727613606986 0 -1 0
580 3 25.16680513750624 0.9848103879176703 1.4618280900722103 0 0 0
582 3 24.922016915592575 3.6232416333608706 2.705527443242468 0 0 0
588 3 25.15452269366834 3.5516290480251245 65.94090086806273 0 0 -1
531 3 22.4518115144713 3.975922389022305 3.0217644441718736 0 0 0
777 2 28.121847090919516 2.2944538492455773 3.6079371290889832 0 0 0
829 3 27.58461179324165 2.011437732327106 1.2650229487291145 0 0 0
833 3 28.59002581896191 0.740032390808522 3.769097870183878 0 0 0
834 3 29.468412451514684 3.6340141009847797 2.7378622764644214 0 0 0
840 3 29.216090196868457 3.790461683532137 0.3340493427740191 0 0 0
583 3 27.34130997686935 4.071437864940286 65.75949585709999 0 0 -1
585 3 27.2994390708038 3.871948854657374 2.9145700776499286 0 0 0
721 1 30.569211065612425 2.6940032051916023 1.7180914844283464 0 0 0
778 2 30.198798048089074 55.7400552769719 3.428223195152233 0 -1 0
832 3 29.94742509814839 0.798558415506783 1.7626800149622803 0 0 0
838 3 30.818309096014904 1.6904162383338854 3.5445147175649048 0 0 0
795 2 32.66448805864008 2.507257736169894 3.348047239917409 0 0 0
883 3 32.55354852230627 2.1562575636973143 1.5240918731067983 0 0 0
887 3 33.42783468802931 1.1625037192562557 3.9500532020735992 0 0 0
835 3 31.79265785227449 3.864080660784306 0.38949109674977705 0 0 0
837 3 31.65759182727041 4.059943249930055 3.0568585010797342 0 0 0
888 3 34.07892973473188 3.4371835910668787 3.0724796071990257 0 0 0
894 3 34.157794563810945 4.1027221255453314 65.82821145044011 0 0 -1
739 1 35.04631281480352 2.8097879757938022 1.6435523947462287 0 0 0
813 2 37.22888588475579 2.7946965756140165 3.717781164991317 0 0 0
886 3 34.528721011017936 0.9005207986950534 1.7431378383913023 0 0 0
892 3 35.55590935929679 1.9701909466619605 3.869289114569307 0 0 0
891 3 36.4371717233558 4.03862000566364 2.6557166938565913 0 0 0
937 3 37.129624690800625 2.356476303035777 1.2036783128439437 0 0 0
941 3 37.92405188526868 1.0367311533237018 4.000730800408961 0 0 0
757 1 39.58192722386133 2.4142203142838192 1.845418477193174 0 0 0
940 3 39.14608911770178 0.819865980532412 1.6223254396198152 0 0 0
942 3 38.72390822325687 3.443723192330199 2.9300233367198096 0 0 0
946 3 40.32745285344494 1.9098787805814652 3.5752202144833 0 0 0
948 3 38.73360109840363 3.8276475765343654 65.99042967990248 0 0 -1
945 3 41.04551437727701 4.013203139511204 3.2455035007970516 0 0 0
24043 4 42.618661904255184 0.5386212466165667 65.0822431816202 0 0 0
1081 1 44.49864043712252 2.6007332743970717 1.614867395481031 0 0 0
1137 2 41.86837126181749 2.544111794058654 3.686848986925597 0 0 0
1138 2 44.137873816080635 0.3127552732735032 3.2995235782697505 0 0 0
1189 3 41.52321075126987 2.055390920056658 1.527229483064517 0 0 0
1192 3 43.70174099205855 1.0396413251086458 1.960339937724152 0 0 0
1193 3 42.528709249897105 0.9656188130745714 3.8415792075562063 0 0 0
1194 3 43.156715761780426 3.4436379709050517 3.0478784856958527 0 0 0
1200 3 43.583894664210995 2.9983868825719404 65.708235294238 0 0 -1
1198 3 45.117933159509604 1.7901645491005629 3.79419019390651 0 0 0
1153 2 46.57517902359752 2.767515467425409 65.78799674543741 0 0 -1
1155 2 46.67540618732783 2.4750627458726107 3.3692260744555687 0 0 0
1243 3 46.42076281449214 2.1184255713788707 1.6382873292671054 0 0 0
1247 3 47.31364536795387 1.1059796526596646 3.7401128880789156 0 0 0
1248 3 47.99553969872481 3.5962997401118555 3.070653718162379 0 0 0
1254 3 47.6760999083456 3.8010817188459183 0.43759047157913444 0 0 0
1099 1 49.214925746827625 3.0031319296193777 1.6654054133221907 0 0 0
1156 2 48.86251848024371 0.46308463053442517 3.1036675648491143 0 0 0
1173 2 51.16340006569828 2.61648216122275 3.3664166560155446 0 0 0
1246 3 48.386989790009366 0.9211419699742619 1.4853256100999743 0 0 0
1252 3 49.77516453053477 1.8867690125308176 3.2863601605509443 0 0 0
1297 3 51.09842078278582 2.4469064229495814 1.3321926677669305 0 0 0
1301 3 52.22994262692365 1.0104962300985179 3.9001841616096526 0 0 0
1249 3 49.92954141164258 3.857819437873045 65.60315584617396 0 0 -1
1251 3 50.39235416842087 4.0837955074862204 2.891273786960964 0 0 0
57 2 55.76301413395191 2.6620437700296544 3.4783251274185774 -1 0 0
1117 1 53.22467981589525 2.53851316668285 1.504101967752869 0 0 0
1172 2 53.57958420147225 55.68416455013403 65.77269302531246 0 -1 -1
1300 3 53.244725418504956 0.6658726969858921 1.6251288614977288 0 0 0
1302 3 52.57260232260181 3.2324852784975864 2.9365413875861264 0 0 0
1306 3 54.46999947151052 1.6133489715074063 3.7129390588353357 0 0 0
1308 3 52.33598335282276 4.084746400490949 64.96632508118866 0 0 -1
1303 3 54.54208793975704 3.7740112972382795 65.99035501323858 0 0 -1
1305 3 54.80966248308417 4.1703559496836435 3.0779653048636777 0 0 0
4 1 0.5198236116457093 4.639378368467699 1.5592577681178001 0 0 0
64 2 2.6455975937313454 4.913448150588755 3.519570067263228 0 0 0
127 3 55.488393343347376 6.539111180359405 1.6203231379037257 -1 0 0
130 3 2.405117578528172 5.445416470981565 1.62819939943747 0 0 0
131 3 0.9803934828799398 5.592968483490191 3.6345159293894405 0 0 0
136 3 3.396240051534356 6.405545653168473 3.7931769934469215 0 0 0
7 1 2.6972143673787863 7.5259835069400784 1.30475571309125 0 0 0
63 2 0.4249287243832275 7.09115644579209 3.3107066953973856 0 0 0
22 1 5.069020109200154 4.995137773541701 1.8785318844810182 0 0 0
181 3 4.674438688001201 6.8674122532412305 1.4922878760103457 0 0 0
185 3 5.843117400375988 5.590340806877494 3.8472629673816097 0 0 0
82 2 7.389895315588838 4.922869376735388 3.368439544361183 0 0 0
184 3 7.3331193383857185 5.274265772957139 1.5567193910664243 0 0 0
81 2 5.066976625375444 7.337997907195568 3.410765990417339 0 0 0
25 1 7.42250959564353 7.415323547320542 1.2950180967230542 0 0 0
40 1 9.79812376229828 4.731311645721433 1.4569082196640704 0 0 0
190 3 8.2339566717457 6.395996730473191 3.7717242642128888 0 0 0
235 3 9.337536200358757 6.842013282776671 1.4144333432954033 0 0 0
239 3 10.499867065089637 6.024707783788967 3.7908607640236682 0 0 0
99 2 9.46131023879384 7.354649452596384 3.246038854931 0 0 0
100 2 11.862810849127905 4.785817748047775 3.380388100973647 0 0 0
223 3 13.628331335227257 3.747574674261753 65.9322032954216 0 0 -1
238 3 11.600807516992312 5.4017679655846536 1.693759797904461 0 0 0
244 3 12.715630669467929 6.450548199652029 3.8380437619051255 0 0 0
364 1 14.67231021546562 4.429245170910409 1.528000113239821 0 0 0
487 3 13.753211898024256 6.334979252532818 1.7035040750829775 0 0 0
43 1 12.164612584379249 7.187217730196644 1.5341308205077817 0 0 0
423 2 14.078813540698103 7.017641574036276 3.2133066518036935 0 0 0
424 2 16.636836965493796 4.835880331967287 3.5306829615450104 0 0 0
490 3 16.476772007877525 5.0109697703871 1.7565143636570115 0 0 0
491 3 15.067700960190233 5.606195847845581 3.6516831759221793 0 0 0
496 3 17.377311250392328 6.292868878841515 3.9613399529082645 0 0 0
477 3 17.943195591541752 4.000171103725908 2.992231804855749 0 0 0
367 1 16.608800194757652 7.116759522927687 1.745793089276043 0 0 0
439 2 18.693786558692018 7.480086180774691 65.68657415047292 0 0 -1
441 2 18.777045675104258 7.219793218071476 3.525747014152088 0 0 0
382 1 19.198297263394252 4.640006346060564 1.2241334107090722 0 0 0
541 3 18.49904157782784 6.720023360483965 2.0013400842509395 0 0 0
545 3 19.768467130284737 5.626259028976955 4.0009611232901925 0 0 0
440 2 21.65371779593636 5.016866399279152 65.8257053761392 0 0 -1
442 2 21.214929457860865 4.8705157006440745 3.6843512264073057 0 0 0
544 3 20.75045363979959 5.417457620465372 1.4924483543925675 0 0 0
385 1 21.41633691471332 7.1343807255236715 2.1299762481791102 0 0 0
400 1 23.704471774830836 4.741534007862367 1.6754228710689183 0 0 0
529 3 22.915149543385763 3.8585476259813363 0.3672731264729684 0 0 0
595 3 23.17418584648456 6.408884087397271 1.5297431879396954 0 0 0
599 3 24.37824670112315 5.494475236491662 4.147217869000487 0 0 0
460 2 25.94784877912076 4.739691069120293 3.483936081501374 0 0 0
598 3 25.56031104288809 5.5146511790593875 1.1727312224365025 0 0 0
459 2 23.706382287944983 7.058558828011233 3.8230696530729884 0 0 0
403 1 25.768255218865637 7.47325328257247 1.3228448779133803 0 0 0
604 3 26.55967051078525 6.335555442892323 3.427058874298876 0 0 0
724 1 28.447866783428054 4.821844778134282 1.6277634102447605 0 0 0
847 3 27.727673621325085 6.8668403535475955 1.3467865505058472 0 0 0
851 3 28.845007207815563 5.685218030047234 3.4002064278648305 0 0 0
783 2 28.194687320074426 7.110361736762179 3.306319419543413 0 0 0
784 2 30.373770916715777 5.035631142077196 3.197175174755375 0 0 0
850 3 30.140334693814445 5.421900494871513 1.4802158622524058 0 0 0
856 3 31.16033078080373 6.318064344494595 3.9705920582951704 0 0 0
742 1 32.99107565727626 4.635531512186002 1.5903749728896521 0 0 0
901 3 32.21113697109515 6.493947064077993 1.8245074080642947 0 0 0
727 1 30.724990283917784 7.423598802883307 1.3084608716781703 0 0 0
801 2 32.57355933865266 7.017898842094753 3.494013764253557 0 0 0
802 2 35.11579007947881 4.765546651629536 3.402066059869808 0 0 0
889 3 36.369908351580484 3.8348683636984746 65.63354265379331 0 0 -1
904 3 34.82631351733861 5.386322873006952 1.715800584856421 0 0 0
910 3 35.85162517021049 6.321875632045428 3.8106244337892883 0 0 0
745 1 35.218805036217404 7.656528316903675 1.4994783101929223 0 0 0
760 1 37.455616607090924 4.952476931756437 1.5422516047446349 0 0 0
955 3 36.98081473602097 6.911294752964309 1.5006022444713107 0 0 0
818 2 39.63787839487579 5.21848794992619 65.48920481677439 0 0 -1
820 2 39.68005379874964 4.789628981596968 3.4496840845097996 0 0 0
958 3 39.65226622498017 5.137542921308126 1.4934027161361112 0 0 0
964 3 40.277709072649905 6.39828203953844 3.666852823752205 0 0 0
819 2 37.307138746240824 7.158931643421699 3.4403113814958455 0 0 0
763 1 39.65635356331146 7.2652002497218975 1.451245163207134 0 0 0
943 3 41.41567848388429 4.2315667385507005 65.62924378507283 0 0 -1
1084 1 41.87649212429575 4.716135790409795 1.8253551502293872 0 0 0
1144 2 44.30272368846003 4.784066417353509 3.4381866432229726 0 0 0
1207 3 41.90027824421382 6.902857643620789 1.7470156155169385 0 0 0
1210 3 43.666915110116825 5.310313879782391 1.4706876862520666 0 0 0
1211 3 42.97598413089588 5.755345509995737 3.8139377981107296 0 0 0
1087 1 43.98016206814072 7.208689394410467 1.7712494445764235 0 0 0
1143 2 41.857542521178026 7.159979794796415 3.3696522556283237 0 0 0
1216 3 45.15686685111001 6.146411350689675 3.8138913332381787 0 0 0
1102 1 46.78812565869603 4.8943987343762485 1.3899132914834218 0 0 0
1195 3 45.56301220212437 3.9050647299595416 0.446925088360578 0 0 0
1197 3 45.61744363086462 4.116689964055897 2.9259637546877535 0 0 0
1261 3 46.205577799253 6.714090466929555 1.7050308663834672 0 0 0
1265 3 47.291018908397405 5.658175171826248 3.574520083191022 0 0 0
1161 2 46.47528827428523 7.133577755665836 3.3651551010843743 0 0 0
1120 1 50.896121949549965 4.70063370459766 1.3487715167570624 0 0 0
1162 2 49.03306286269103 5.037787391815591 3.368836703893842 0 0 0
1264 3 48.80567295634735 5.371571070554083 1.4734332415929823 0 0 0
1270 3 49.59092183232641 6.502879180803971 3.5888885752523016 0 0 0
1315 3 51.161360239234234 6.83701976944079 1.5049531232537523 0 0 0
1319 3 51.6945202000568 5.556323113801673 3.839972969529153 0 0 0
1105 1 49.039126352760334 7.648760132074235 1.720589015436789 0 0 0
1177 2 51.3082755922353 7.50023441355206 65.49178004693228 0 0 -1
1179 2 51.23028394463742 7.253133565063217 3.273110003970794 0 0 0
1178 2 53.37923803565354 4.990641643602756 65.54920378796484 0 0 -1
1180 2 53.14307703347417 4.6513668381647895 3.495200475593112 0 0 0
1318 3 53.0907139801231 5.061660556764188 1.4990246775162637 0 0 0
1324 3 54.03662337865111 6.091939082077051 3.6283981505213476 0 0 0
1123 1 53.492135162218425 6.936046592088356 1.5617919842814072 0 0 0
10 1 0.33892595233690287 9.136369492388933 1.3308302365224018 0 0 0
68 2 2.9484867992943955 9.60872598234957 65.25135823124766 0 0 -1
70 2 2.7251976908458895 9.557055382093376 3.505466389631685 0 0 0
132 3 1.7466915840442963 8.033535003744134 3.027629741666961 0 0 0
138 3 1.7787722709082452 8.311817932097643 65.56790519164882 0 0 -1
148 3 2.59564909371226 9.604968387621346 1.584040915644026 0 0 0
149 3 1.1629437763767672 10.234945925050654 3.7017741407241807 0 0 0
133 3 4.131904986914686 8.411106078853873 65.52936643756217 0 0 -1
154 3 3.3715440690422764 11.075312013076317 3.7115706468964875 0 0 0
28 1 4.868732670077309 9.071977238628008 1.4723308806945676 0 0 0
135 3 4.009721015396043 8.734748371845836 2.9747876055564832 0 0 0
186 3 6.364059596390132 7.9212838160680334 2.6487037677823495 0 0 0
192 3 6.141477676088888 8.334923312101745 65.62278916940168 0 0 -1
86 2 7.428489147860142 9.378847338487205 65.34007715229326 0 0 -1
88 2 7.296971996138019 9.790336273626117 3.210300486982854 0 0 0
202 3 6.766018097461539 10.305553516244307 1.4212316058177552 0 0 0
46 1 9.615505841685744 9.430734413840755 1.6236466169147603 0 0 0
187 3 8.374175714446375 8.365325328024397 0.3551241154897966 0 0 0
189 3 8.463403238451928 8.712383597980176 3.1243868598436104 0 0 0
240 3 10.776361366680977 8.27985050188207 2.790941105216498 0 0 0
246 3 10.812165014990766 7.867819666189508 65.52224691796496 0 0 -1
208 3 8.158604250325858 11.107987736036142 3.844789182349204 0 0 0
253 3 9.408256221370857 11.405393007215665 1.3496438295789603 0 0 0
106 2 11.888510538308601 9.387245079333804 3.4476668845574365 0 0 0
241 3 13.249698917467724 7.8951064055569 0.3453156146069688 0 0 0
243 3 13.305133252725547 8.759068851344063 2.717120869240198 0 0 0
256 3 11.32172731731058 10.09697735769343 1.600310160569687 0 0 0
370 1 14.028470258830241 9.488913257240618 1.3561548771527703 0 0 0
262 3 12.481790640902119 11.043719883961979 3.9310926624588576 0 0 0
428 2 16.400196793413482 9.590302537537525 0.31355921428898886 0 0 0
430 2 16.39805689823298 9.352421036192744 3.6263838957587318 0 0 0
492 3 15.390894492798303 7.843081212747036 3.119527755766034 0 0 0
498 3 15.653231927683407 8.111559662970853 66.04788981002513 0 0 -1
508 3 15.904315291039476 9.949472347303704 1.8018825013874036 0 0 0
509 3 14.819121489910897 10.183242663797813 4.033207131354389 0 0 0
493 3 18.06326242903008 8.847144333046124 0.5648133797960128 0 0 0
495 3 17.632394971609507 8.441579352747805 3.0220720216216748 0 0 0
514 3 17.289123828456773 10.681589465678547 3.8628194947925403 0 0 0
388 1 19.243572085225374 9.396609552750737 1.9989196990466083 0 0 0
546 3 20.133439172585696 8.087140321296829 3.1679269934116427 0 0 0
552 3 20.08770860569169 7.999970364523459 0.6515723959843285 0 0 0
563 3 19.684811027961675 9.999443476367569 3.7926247367933517 0 0 0
446 2 20.81783719120649 9.220991278887023 65.59856648714869 0 0 -1
448 2 21.20542823549858 9.435071857139295 3.7433106992201757 0 0 0
547 3 22.289744139658257 8.217754747966463 65.46034136629568 0 0 -1
562 3 21.074483036681517 9.807244288264004 1.4306194611362353 0 0 0
568 3 21.8786650900078 11.170753728485378 3.979097334615053 0 0 0
406 1 23.162658792052888 9.268111832034867 1.8799817896773463 0 0 0
549 3 22.576016234651156 8.374874129759887 3.2763498660230654 0 0 0
617 3 24.30591276763382 10.000866909654162 3.5912430173309273 0 0 0
466 2 25.8031311176353 9.47320389727366 3.3474156620651647 0 0 0
600 3 24.764853661075946 7.848393667391133 2.839949584447645 0 0 0
606 3 24.580045859525633 8.20878500464801 66.09263784955509 0 0 -1
616 3 25.775735605986014 10.036646153902522 1.8794410693540262 0 0 0
601 3 27.06284552503042 8.655959590504992 65.6619416746442 0 0 -1
603 3 27.08914451560974 8.605031647275172 2.8866339044069687 0 0 0
730 1 27.829321687933085 9.504506720951822 1.3862946932157691 0 0 0
852 3 29.366767108039525 8.1217694796014 2.6702134625833103 0 0 0
858 3 29.308012584724217 8.520711430828735 66.03927903338973 0 0 -1
869 3 29.056175474134168 10.345866771700967 3.638150850648565 0 0 0
622 3 26.69547095569167 11.071086367351528 3.7516906214575148 0 0 0
790 2 30.43290250986072 9.494706834753384 3.0797068133931242 0 0 0
868 3 30.35842622464093 9.965084170836665 1.5171600871857873 0 0 0
748 1 32.446168241367516 9.386015326187914 1.369616576692803 0 0 0
853 3 31.990044208179594 8.039355936905961 65.72036346237495 0 0 -1
855 3 31.711521118295543 8.479569340353038 2.868874747234977 0 0 0
874 3 31.42722358731091 10.78187892571585 3.936245727587161 0 0 0
906 3 33.96925102765521 7.839968007040427 3.029032122164178 0 0 0
912 3 34.23145430551531 7.628709375179785 65.5418713970469 0 0 -1
923 3 33.41771420798225 10.151077965566136 3.733641199158361 0 0 0
808 2 35.032515254351715 9.325554859022446 3.234547458260065 0 0 0
907 3 36.35682122533968 8.323001685320172 65.77533650696118 0 0 -1
909 3 36.54999959023361 8.697505715539027 2.848540494462312 0 0 0
922 3 34.751016503634666 9.584609808378259 1.4613668083812044 0 0 0
928 3 35.56143516450486 11.097416218364469 3.4948907152653166 0 0 0
766 1 37.30084683851996 9.387044669532871 1.427197616472755 0 0 0
977 3 38.238412066108545 10.3812220072849 3.6244418697380576 0 0 0
824 2 39.87892757101167 9.581295059410248 65.8244058394863 0 0 -1
826 2 39.673904408709234 9.514928100114586 3.462174479408409 0 0 0
960 3 38.675270411975596 7.926321651868236 2.9872886999074844 0 0 0
966 3 38.92759710070947 8.00352845631064 65.55465564011091 0 0 -1
976 3 39.29207922316705 9.682643607801932 1.6435969016178915 0 0 0
982 3 40.49276921845361 11.041773253619274 3.6016934931395235 0 0 0
961 3 41.089807419138346 8.549988730383268 66.09706097410267 0 0 -1
963 3 41.28719595544196 8.66311115069315 3.3255048881720892 0 0 0
1090 1 42.08544058049744 9.492734994113045 1.5244056684208518 0 0 0
1150 2 44.241866108367134 9.374360497817719 3.2775042944083315 0 0 0
1212 3 43.440913099440856 7.990866681946474 3.1679899051011278 0 0 0
1218 3 43.51257340075184 8.19456934473681 66.00925568005557 0 0 -1
1228 3 44.1322179117712 9.699987016089525 1.617190344026968 0 0 0
1229 3 42.82379182135047 10.504396318364796 3.383487022359056 0 0 0
1108 1 46.81803155525106 9.250842482466116 1.334752518278624 0 0 0
1213 3 45.590474021599306 8.613034911737703 65.97682067682699 0 0 -1
1215 3 45.77652585325482 8.772896018025921 2.8905622908284667 0 0 0
1266 3 47.77165483539591 8.047734614910809 2.7937945553562935 0 0 0
1272 3 47.80068406300785 7.5886349806866615 65.99581207522422 0 0 -1
1283 3 47.434431449327455 10.241328271794375 4.123614470229555 0 0 0
1234 3 45.02019447314042 10.801349197749555 3.9461488889880285 0 0 0
1126 1 51.12520902788148 9.60595822761296 1.4582355336723283 0 0 0
1168 2 48.74104060011975 9.367790577568918 3.38783285270425 0 0 0
1267 3 49.954783669685646 8.53807574298237 65.89499633601548 0 0 -1
1269 3 50.1630708733837 8.304795984986395 2.626995476630797 0 0 0
1282 3 48.47602804751986 9.798328800026672 1.4939500471143339 0 0 0
1288 3 49.61521701759549 10.984461478847745 3.739531827923883 0 0 0
1337 3 51.96723755949158 10.273336398843629 3.801680443766092 0 0 0
1184 2 53.66759299682084 9.653144446656047 65.86397797601843 0 0 -1
1186 2 53.44109938608491 9.475743859454138 3.2039063545273927 0 0 0
1320 3 52.510760056398524 8.0491649759967 2.6484461622053983 0 0 0
1321 3 54.824665086198216 8.440016389579904 66.02175269592303 0 0 -1
1323 3 54.926362032097394 8.486634920151863 2.8309976147044185 0 0 0
1326 3 52.557883571777246 8.423423369706896 65.94186274805755 0 0 -1
1336 3 53.14393562100743 10.40077737653649 1.5264757163223899 0 0 0
1342 3 54.24663250950605 11.121193796579004 3.6777503306856714 0 0 0
24394 4 51.201491220604154 10.196866888046452 64.95677883783586 0 0 0
13 1 2.5305924501708175 11.890916107830959 1.6469336727533266 0 0 0
16 1 55.64617441314622 13.863133390904533 1.3763761273322268 -1 0 0
145 3 55.55850623577995 11.283366540833546 1.8456714824561347 -1 0 0
150 3 1.7131649014848644 12.639784588109455 3.111560305443802 0 0 0
156 3 1.5212479556738956 12.500789181325244 66.05329446391225 0 0 -1
151 3 3.963270560805171 12.779048363703836 65.94780864134904 0 0 -1
1496 2 2.6390478558837027 13.606412316389958 65.32125588169257 0 0 -1
1498 2 2.737479929299531 14.096472348053942 3.1499723864515157 0 0 0
1552 3 2.1802511650806116 14.284203758354863 1.3031705285567403 0 0 0
34 1 5.037178161386897 13.688317923201378 1.317341363621121 0 0 0
85 2 5.195540810350906 11.599406441399378 65.74228768901196 0 0 -1
87 2 4.874728635863776 11.829697566891157 3.2611658132465844 0 0 0
153 3 3.9927865012876795 13.210367159559574 2.624224657557982 0 0 0
199 3 4.400123829324946 11.23105804400658 1.4913875406920423 0 0 0
204 3 6.348398685505414 12.776587506245377 3.1086777319477243 0 0 0
210 3 6.40388803486499 12.915987442530342 65.89637905773999 0 0 -1
31 1 7.431791179532268 12.142747849458802 1.3841706564100997 0 0 0
1607 3 5.798136740633751 14.81712868417662 3.9231857100967886 0 0 0
1514 2 7.124586372848615 14.457717359055385 65.82731643270951 0 0 -1
1516 2 7.280058151190047 14.303922304206612 3.2062740354038124 0 0 0
1606 3 6.590381498946164 14.558161266224216 1.6133165002049503 0 0 0
52 1 9.76595432810516 14.1988908858429 1.3887737502596635 0 0 0
105 2 9.558313606976371 11.822670990873698 3.431072380193577 0 0 0
205 3 8.581317691677606 13.533130308033277 65.97936798416163 0 0 -1
207 3 8.632056123682487 13.350352069152757 2.6168506907659665 0 0 0
258 3 11.03337645256152 12.62364935265237 2.841221924618798 0 0 0
264 3 11.055490907397614 12.942607641080604 65.82107978418811 0 0 -1
1661 3 10.403129965434792 15.022883116388943 3.391233800954889 0 0 0
49 1 12.059283137819898 11.930242976519354 1.4462597253082845 0 0 0
259 3 13.14000955319372 13.399079178276658 65.99397683193222 0 0 -1
261 3 13.259567395193008 13.233688309576996 3.0680026109979877 0 0 0
376 1 14.055677579263271 14.13009954426037 1.6009147547676508 0 0 0
427 2 14.118699885007793 11.664551254168165 65.68773880920806 0 0 -1
429 2 14.031860725903554 11.646029025919926 3.736567337614982 0 0 0
505 3 13.804382484153935 11.266336946834905 1.4499556328968912 0 0 0
1534 2 11.96551466236919 14.236042530826014 3.389434667360038 0 0 0
1660 3 11.618495633179505 14.602905419776738 1.5033411375101562 0 0 0
373 1 16.66765371270225 11.951084942995996 1.7322121932201173 0 0 0
510 3 15.401872933633124 12.525445644882929 3.2359759789724425 0 0 0
516 3 15.413835814693543 12.863687881893064 0.3473712276578867 0 0 0
447 2 18.760883975120645 11.511524194512099 3.4183312115712687 0 0 0
511 3 17.60692008368989 12.668456745144756 66.06375515726467 0 0 -1
513 3 17.66022436895907 13.192859150353602 3.093274908784521 0 0 0
1858 2 16.39093580372845 14.097410582263986 3.366260574935013 0 0 0
1912 3 15.964184435471509 14.528236900979074 1.7027323155887817 0 0 0
394 1 18.98552336831522 13.672296448718786 2.1105890563698795 0 0 0
559 3 18.36350319950365 11.25589188837601 1.941201293557718 0 0 0
564 3 20.082639297317595 12.445536110074485 2.895309924073955 0 0 0
570 3 19.806644827159335 12.775890967719873 0.3078406915523256 0 0 0
391 1 21.150385757480457 11.72159456524064 1.4492147183467168 0 0 0
565 3 22.035584469894285 12.413350469958969 65.61799915971068 0 0 -1
1967 3 19.57513767563937 14.927844471476806 3.6251931787199774 0 0 0
1876 2 21.160273450786494 14.158263973345607 3.468875929593366 0 0 0
1966 3 20.634261667363152 14.581769059621125 1.3771056468254284 0 0 0
412 1 23.42257396837767 13.991208960071008 1.2170739322064503 0 0 0
463 2 23.173323179792185 11.473171436004009 65.1526145093151 0 0 -1
465 2 23.43354615375532 11.761322803519425 3.163048261220838 0 0 0
567 3 22.281782971278645 13.28037764365526 2.45380908913821 0 0 0
613 3 23.12306470011135 11.162018299873615 1.4438161538497347 0 0 0
409 1 25.55392201015068 11.990600596745894 1.1183350663049776 0 0 0
618 3 24.97825583388811 12.74101717867831 2.6582982503511525 0 0 0
624 3 24.388084660177856 12.999081798974071 65.69915793540164 0 0 -1
1894 2 25.901971162422512 14.004672109765076 3.428889544978429 0 0 0
2020 3 25.228973305710433 14.78807541148921 1.5138377033688444 0 0 0
619 3 26.93794722604498 13.474249510791608 0.34785142727925206 0 0 0
621 3 27.459033386032708 13.216387329144617 3.2262511099330666 0 0 0
736 1 28.40158939627095 13.96847413266966 1.6658968053002967 0 0 0
787 2 27.78627104261695 11.921925077950714 65.53770665242466 0 0 -1
789 2 28.199640018560682 11.706993379015511 3.5611273201488327 0 0 0
865 3 27.56194047386319 11.543853810931513 1.2689051390763906 0 0 0
870 3 29.706881375911287 12.530615282737779 2.9233487157405253 0 0 0
876 3 29.446208030248837 12.408355887821546 0.3396328424875221 0 0 0
733 1 30.862343332552346 12.046740352757793 1.703675142054449 0 0 0
754 1 32.998700275988895 14.200751560606681 1.6025464664569817 0 0 0
807 2 32.90886527633265 11.608939873684461 3.3705753346414884 0 0 0
871 3 31.803847164223875 12.886179355520163 65.99723621259683 0 0 -1
873 3 31.978710229055686 13.212771094808396 2.9128933831616406 0 0 0
919 3 32.72170589810408 11.155045656395417 1.575580223334077 0 0 0
2216 2 30.06679955809084 14.005239666403368 65.733556713228 0 0 -1
2218 2 30.333333778823892 14.271704759346113 3.4097759627243653 0 0 0
2272 3 30.139683774162254 14.482244957943578 1.8343849840060336 0 0 0
924 3 34.218280291356955 12.726811972912868 3.2252616137856127 0 0 0
930 3 34.01854832497979 12.93807337915429 0.5555246375817433 0 0 0
751 1 34.85414105401406 11.692669773595812 1.546400216626309 0 0 0
925 3 36.364001156990795 12.913236448366824 65.76797132641063 0 0 -1
927 3 36.736019602124145 13.29938043790654 3.075655447497538 0 0 0
2234 2 35.22653992656691 14.144932674582773 65.56196174051622 0 0 -1
2236 2 34.936106764500536 14.218491049408025 3.487689586655819 0 0 0
2326 3 34.79145490364565 14.696098195374121 1.728083464782793 0 0 0
772 1 37.17336907480147 13.984040442127473 1.6176797944330843 0 0 0
823 2 37.58494578368265 12.1765142695972 65.68074033991353 0 0 -1
825 2 37.172755491693586 11.73900530941711 3.343311655024743 0 0 0
973 3 37.52383112391174 12.004189266005683 1.4731069942514439 0 0 0
769 1 39.557615285543264 11.76776525194085 1.614425446825979 0 0 0