LAMMPS data file via write_data, version 2 Aug 2023, timestep = 5200, units = metal

360 atoms
4 atom types

0.5259559083980898 13.484044091601909 xlo xhi
0.5259559083980898 13.484044091601909 ylo yhi
0.4985506397948587 12.781449360205112 zlo zhi

Atom Type Labels

1 Mg
2 Si
3 O
4 He

Masses

1 24.305
2 28.0855
3 15.9994
4 4.002602

Atoms # atomic

216 3 4.081545299774437 2.3461793164272065 5.450646116167227 -1 2 1
282 4 4.551535494366926 2.7692400901906957 10.5516086241112 1 1 0
329 4 3.1966263480685413 6.226498994325624 1.8956037036933182 1 0 3
199 3 3.7349563250459097 12.654183842950875 1.99369474701447 0 -1 0
281 4 1.7558137048693163 4.375362817979056 12.638100742394991 0 0 -2
44 1 0.5370354150180521 2.4305513827168 4.867190547332204 0 1 1
141 3 2.3256398660677204 3.2778887642927557 5.453676532758969 1 1 0
129 3 0.8141495123796954 3.2422925185510167 2.2343483839002998 1 0 1
317 4 13.451605291780297 1.2549586810467503 1.604727813216052 2 -3 3
211 3 3.545064386379395 12.082025432149184 1.5707733264826536 -2 -1 -1
66 2 2.3987405240604653 3.0984779805640366 3.8706513973103718 0 0 1
260 3 3.5875554830106937 1.135551140202448 9.192052399426576 0 1 -2
286 4 4.6365554235253414 9.453484727443826 2.576653064102806 0 1 2
152 3 3.5335688444173985 2.2428494507189827 2.4822854432103343 0 1 0
119 3 8.367866904085842 3.341799456993789 1.538329847346706 -2 -1 -1
191 3 8.325437451120692 0.5668595761959974 0.6210123859621535 0 0 0
131 3 7.006545792725458 2.1500138245758955 11.414563546564446 1 -3 0
207 3 6.993766932974872 13.28143580412047 5.023727602191415 0 0 0
123 3 7.523770292687146 2.832932652767187 2.175828041421112 0 0 0
230 3 9.72524404845505 1.9840250867668325 4.2221239079019455 1 -1 0
219 3 6.738416744693416 13.34809267342288 2.371599267209689 0 -1 0
296 4 6.799601792683899 4.879095799166064 1.9801636510008855 -1 0 4
344 4 10.945246928381973 9.419626023275327 2.8900979358130288 1 1 1
140 3 6.982618127149966 3.727514159771811 11.508135736736595 0 0 -1
142 3 9.99667259562985 2.8551207635281934 2.8888144584629707 0 0 0
115 3 4.265913827281142 1.4438001350187781 1.3347360298981448 0 0 0
72 2 3.817759774405002 1.8788669931648168 2.7045621012599477 -1 -1 1
96 2 8.869113347312659 1.5461807947321595 5.0003701612579885 0 -1 0
187 3 7.091106827604492 2.362881222606792 2.1080713215668068 1 1 -1
65 2 8.719314339826912 12.299887245223257 2.851150587245146 0 -2 2
93 2 7.624631203509143 2.740873888844437 4.0351361619700565 1 0 0
137 3 4.25934662925687 3.3359564549336125 4.942727475827047 -1 -1 1
121 3 7.407164073166084 11.063143698082385 3.4870951824271312 -1 -4 -1
82 2 11.337203798358846 1.3228102566584243 2.2490608590771672 0 1 1
257 3 9.61073026460609 2.4807716828276174 2.281397063806294 1 1 -1
122 3 8.29397103626906 3.419254944545074 3.182839677169018 0 0 1
350 4 3.117805793565584 11.768493554843403 11.278978630467414 -3 -2 1
107 2 5.971218716475714 0.7388047909246035 6.631361716534172 1 0 2
328 4 9.823664263086712 3.1945743935941673 1.8796158014479956 -1 3 1
237 3 11.498912496135098 3.826729048339712 0.5967080932274601 0 0 0
179 3 11.412459233754753 2.425136005203514 2.7603417691415597 1 1 0
247 3 12.715532235672 1.4385121901884923 1.2708445455504742 -1 0 0
233 3 10.939684810296317 1.3394483912820232 0.5606879309772962 0 0 1
109 3 1.5500764891693308 2.213145357276555 1.1819823592235905 0 -1 -1
154 3 11.971993976277716 3.1943540903205547 12.204619352643448 0 2 -1
223 3 9.982636753646439 2.039602276577183 2.519923958963348 0 0 -1
80 2 12.525495560196756 4.702710246754802 2.388707569584723 0 0 -1
124 3 10.833583756022328 4.2246348585961195 0.7962180634281599 0 -1 -1
319 4 11.075789024737944 4.801961829375237 12.19336687631494 0 1 -1
312 4 2.520005877187325 2.423546717744617 10.367196923988205 1 1 0
337 4 3.4735715395373954 7.362047584487144 1.6565713490643832 1 4 0
358 4 11.295873829228185 13.17695333845855 4.3894271339714095 -1 -3 2
353 4 9.268072371183376 10.558103488168026 2.8789854867848845 -2 -1 2
333 4 11.19957462987739 11.873974350617157 6.12951282307763 -4 -2 3
225 3 3.9596824711901313 5.545832135892585 1.273598716376621 0 0 0
214 3 0.9442892936149603 9.145387237142156 12.527637557393493 0 0 -1
150 3 1.581314269846805 6.05636766200762 5.820476002610314 -1 -1 0
323 4 13.066135097708852 5.997873817921479 7.372977093213732 -2 1 1
43 1 1.0772728820461008 5.709769547177743 0.5326507980721388 1 0 0
234 3 1.2597040629928604 5.731076096292115 11.289740867933501 0 0 -1
310 4 2.4671018684862585 6.860610286297622 2.147881683836701 2 0 2
332 4 1.7868552436031881 10.686137490495007 3.282263762269744 1 0 -1
36 1 12.886381779744465 4.320145743722837 2.957710543766423 -2 1 1
105 2 3.245702132480782 9.842291239855012 5.9214902571252495 0 2 1
272 4 3.2050319171887076 5.795205359922018 6.679586431680352 -1 -1 -3
24 1 11.796209714383743 6.259600461066388 2.2040674978810815 0 1 0
53 1 12.264874436123652 7.731801372207594 3.27850354657528 -1 2 2
23 1 2.904186505403512 4.426657413419072 3.6654626364189404 1 -1 1
209 3 2.56139404696914 9.953468030003904 3.93190042732325 0 0 -1
101 2 3.7086710028540155 6.96430677301578 6.123930531442246 0 0 1
62 2 8.528094013227339 5.924596272871035 3.383287597626406 0 -2 2
261 3 10.82819644631391 5.9460300360756655 4.884213187005262 1 0 -1
79 2 8.861217049410833 4.314748507547945 12.374067497060306 0 0 -1
15 1 6.432095246208204 6.996539288289902 11.561834721019519 0 1 -1
127 3 9.873329490345828 5.69967013220337 6.401735193511928 -1 1 0
81 2 6.312943512755111 5.06624346053304 3.557298993267142 0 0 0
357 4 7.425384620403676 6.491742787214371 1.686749513946868 0 -2 3
278 4 12.550939953561581 3.4986997226499477 5.565798624098155 1 0 1
304 4 6.48860774255318 8.616281705592638 4.739655025363485 -2 1 4
248 3 4.468295475022174 6.786959350286795 3.0199709303750772 -1 -3 1
18 1 5.4959111424604865 10.803938376272079 2.6908210865658093 0 1 1
164 3 7.742946342627955 4.742472315419904 10.225068847570329 0 -1 0
186 3 6.732192016745341 7.895542771355646 1.9714121070774537 -1 1 1
298 4 12.960900008858282 13.016090908929275 4.008874705156854 0 5 3
240 3 11.523014485052496 8.263342004677716 1.034199545870664 0 1 0
41 1 10.72560684321924 9.836971026948621 3.9440639925121106 0 0 0
306 4 3.1378269473789637 9.620634315590497 4.32162061740631 1 2 1
227 3 8.069384379467643 6.566237296235388 11.76056244760213 0 -1 -2
117 3 12.957572031378241 7.080384598209451 3.3383005206389584 -2 -1 0
176 3 9.971818677115674 6.765428988339671 1.6484058243118425 -1 -1 1
4 1 11.898533589017866 7.820215501094641 11.966672123294645 1 0 -1
20 1 11.3872886532885 5.0555365379286545 3.689297347264236 0 -1 0
3 1 13.27555775306147 8.33990068528877 1.3162733467176664 0 0 0
183 3 11.094486768045961 9.81453459258919 3.2679411957901734 1 0 2
162 3 8.604331430644386 4.026321385515571 2.4194900617179593 -1 0 0
171 3 11.842491912455461 3.817250078243592 0.8415031701948128 -1 -1 0
269 3 2.675735904382646 12.67170296470561 3.2294213984844733 1 0 0
173 3 6.452027710943096 11.963660394053932 4.423895942511548 0 1 -1
263 3 2.5183107455033 13.300827336327124 3.3091945931575015 0 0 0
224 3 12.971349004404125 11.518630286295693 0.8288446296411988 -3 -2 0
284 4 11.904120344301404 13.421588824875112 3.2977885547176085 -1 -2 2
239 3 13.379068336593786 11.289434417010128 11.964322359914172 -1 -1 -2
52 1 6.431569790831111 11.634971238692401 2.3741924732406976 3 1 -1
14 1 2.0977216737650757 11.969006384893635 11.256456289538683 0 0 -1
51 1 2.311104315212295 12.731797669823749 1.279409382358804 -2 0 2
1 1 3.3188321921346726 12.322511659019323 3.927865409827376 2 0 0
10 1 12.856107262219961 1.2808061846392191 2.453988631030038 -2 1 0
236 3 4.970195275616447 12.878105327374858 12.6140442271166 1 0 -2
246 3 3.9964978825558006 10.987605875219927 6.93109139167328 0 0 0
192 3 5.409419784863943 11.622590069570972 1.8141213296270395 2 -2 -1
102 2 1.0329109139422656 1.1972469044844403 1.0048388909077501 1 1 0
285 4 7.510114776216454 6.130078545917077 12.458044957460755 2 -3 -2
320 4 0.7322264335796266 11.559060357329344 3.058535717840977 -3 2 -3
168 3 5.142945446240408 12.048237761964685 1.0571508165349952 0 -1 0
189 3 5.8147701482641585 12.952540791719546 12.25341597731385 0 -1 -2
112 3 7.944768180050291 11.74161347219037 12.542845049633154 0 -1 -2
12 1 4.405198061245208 11.682042659748205 2.0799446786652815 -1 0 0
258 3 8.476928343708396 9.217545172074626 3.3635392126403763 0 -1 0
108 2 6.181517212950963 8.58812631801705 1.638439181346733 1 -1 -1
25 1 7.510023535565407 12.375855599225574 5.3850097448359096 1 0 0
262 3 9.12624952541993 10.240568896804994 12.356916278099536 0 0 -1
340 4 11.190376657941805 8.9632165413013 2.3159042114709694 2 0 0
200 3 8.33521555745158 12.184514004303956 10.796722272800862 0 0 -1
86 2 8.734235809937719 12.258935799631647 4.425527703640295 1 1 1
97 2 5.544211114957661 12.058268817607924 11.803646939171646 1 -1 -2
92 2 2.959052023783601 13.399338054214883 5.134902241595476 2 -1 2
103 2 6.010480496832793 0.7941239323450855 12.68724527196598 1 0 -1
318 4 8.028811549621565 5.888327884756157 3.9582803675583635 -3 -2 2
85 2 4.169616216285791 9.436232387516569 12.707844515744982 -1 0 0
30 1 8.743149991478376 12.193567523886255 2.1978428958789715 -1 1 0
50 1 12.968837365157093 12.927277024181642 3.216519715135984 -1 0 0
169 3 11.94604330720756 11.511760766644858 1.8767043423421839 0 -2 1
28 1 12.574586129001222 10.897039226555933 2.4590427930502097 0 1 0
156 3 8.21502375347319 7.508413289403222 2.9416187683273183 -1 0 -1
90 2 12.349464102585017 9.46955593460791 2.657519920772711 0 0 0
331 4 7.493956252782166 12.008050438650258 6.430231158052058 1 1 6
241 3 10.532758904274132 0.601091029787066 3.2531833148675062 -1 1 -1
138 3 11.192895375781255 3.9728668173264854 12.41073149230521 -1 1 -1
197 3 2.567544492794174 3.027286575331412 5.4766030049473535 1 0 -1
184 3 3.9130068531641156 3.9211697118674875 6.622113272032508 -1 -1 -1
205 3 4.336180605408131 3.96719463416734 6.333394126967005 1 1 -1
94 2 5.165429088498306 1.4088660125106598 7.583298301134672 1 0 0
322 4 2.341007539288664 5.150037256361159 10.705495324038504 2 -2 3
311 4 11.794288554678854 3.0790472823101034 11.857232884966919 -2 1 2
89 2 13.476054321868395 3.303457419553181 5.766334378501392 0 0 1
266 3 3.2514612572467474 12.502133017465411 8.202678969180852 1 -1 0
21 1 13.473367481104795 0.7714806160036747 5.330223124588922 -1 0 0
218 3 13.353082073609453 1.6451317403656314 3.295027392824915 0 -1 -1
68 2 3.526333715474925 13.374097170954219 7.1555785532726714 -1 -1 -1
34 1 5.620672466557416 12.54232110207153 3.3284616045736093 1 1 -1
88 2 6.431743538011444 2.051002166931479 6.387349127249442 1 0 1
321 4 4.780925661962428 3.373672796917184 3.7338180923828053 0 -2 -1
297 4 9.01326698702837 3.8938432690698046 8.415124166554728 1 0 0
37 1 9.025667761033993 3.198848924740754 2.5634033788887978 1 -1 -1
73 2 7.231235761258238 4.315962094109565 7.74494173680725 -1 0 0
38 1 6.185427488602218 1.0458868787863738 7.743327218099925 2 0 -2
61 2 9.717377167399988 4.251441103244913 3.8891399644700537 -1 0 0
295 4 5.947484302764242 0.9840188520977367 6.805925900698532 -2 3 3
308 4 3.6422221298654014 8.414497927377486 9.908897866972431 0 -1 3
7 1 8.58971619395296 5.176021160831506 4.67002717265771 1 0 -2
153 3 1.3177539297821879 0.7144790132823391 10.143920488732558 1 1 1
253 3 12.039522458458691 4.959023338084276 3.5485394491199482 -1 0 -1
341 4 9.414873576973854 7.24301096088466 6.122385711873363 -1 1 0
342 4 12.27099749095365 2.6564245015806147 10.85314120561834 3 -1 4
259 3 10.721900321678287 3.2057770400072605 3.279894434971943 -1 0 0
74 2 12.911784680532723 2.5439780459345918 5.23646196705934 0 0 0
56 2 8.867897921073201 2.9071394072821115 8.559893856082695 -1 0 -2
77 2 12.153401425955682 4.192797431490539 6.6882815696241495 0 1 1
19 1 11.133977147442629 12.98898350817674 5.788208111211382 0 -1 0
222 3 13.424455989102718 1.3274139272635717 4.536544990913989 0 0 -1
280 4 2.040675985215314 12.876197916652433 2.9585374966886344 4 -1 1
182 3 10.385079324673637 4.234297028891055 3.55218708416169 -1 1 -1
84 2 8.336170618108614 3.976170651099409 7.510409807759667 0 0 0
45 1 2.160277120091372 3.6188945377475443 8.2141108347451 2 0 0
201 3 11.877556223351679 4.0157968792595655 7.701757130828076 0 0 -1
148 3 11.393209634554278 12.365675732495522 4.629934880568754 0 -1 -1
301 4 9.248058786769747 5.361377540850446 8.904795237227432 0 2 2
271 4 8.761785509827 4.9486646209612015 12.018855424717682 0 2 3
202 3 11.961287212172962 6.627660708918746 8.039802735706758 -1 0 -1
330 4 9.42914979459892 8.390247343386417 4.070730417560075 -4 0 -1
83 2 3.1930657904108717 7.492507271718693 4.018078711163775 0 0 -1
212 3 3.6914256004281167 9.69296757095698 10.350234513993783 1 0 0
180 3 4.016021472638107 6.143369675991546 6.732615314298114 0 -1 0
163 3 0.7580339120003502 7.562320599498407 7.222090722903487 0 -1 -1
75 2 0.6885365118577698 8.322293309610721 9.990092582105003 0 0 0
228 3 4.0503130172691435 6.90131062533142 4.05575659352859 1 0 -1
120 3 2.8032045244218717 7.631669905054985 3.675696005966459 0 0 -1
267 3 1.6545717136819735 7.060337209197041 5.731846215498536 1 0 0
128 3 3.012202736992118 6.906077216847304 5.039896253738992 1 0 -1
252 3 3.570181006822457 9.508067473006136 4.830779214486582 1 1 -2
206 3 10.790696706392374 9.36267853119612 6.157642484989098 -3 2 1
226 3 11.19298963204131 8.470872251728244 5.783668362627645 -3 1 -1
268 3 2.1614460789149894 6.90213741794402 7.089350371363019 1 0 -1
151 3 1.2250088498488545 9.069405890779713 6.452958984791577 -2 -1 -2
292 4 1.1140440252644517 9.704975208724555 9.660641400276683 1 0 2
125 3 4.682636380874178 5.598271705154712 4.0823685463090165 0 -1 0
276 4 5.599834613660515 2.9715824131662862 5.003551889268767 -2 1 2
293 4 12.699779690086892 5.219537605834673 9.03961038948436 4 1 2
208 3 7.752379265372767 9.74432538522121 6.7773277665234835 0 1 -1
185 3 4.505918604915524 4.838707723177834 9.658830705614465 -1 0 -1
149 3 5.451965979077308 7.362799415524175 8.292623377696653 0 0 -1
106 2 8.255114274250158 6.554695313358841 5.227302720884154 1 1 0
39 1 6.412282740915742 9.010826400107238 4.493335847702144 1 0 0
327 4 9.176628757434802 2.953169170879977 10.137676207804091 -1 11 1
188 3 7.460854499566889 9.06691058749701 9.975789449792327 0 -1 -1
283 4 6.119644692767633 8.320945107740494 11.732523280942202 -3 0 0
33 1 8.29650933172828 2.3466323937244686 8.852409443914087 0 -1 1
232 3 1.663268331770025 8.39398476519068 6.967054946922753 0 -2 1
165 3 7.07837108014759 2.2259319405387483 7.785361029589658 -1 -2 -2
325 4 9.438358267156392 7.793734931841365 1.482891850188229 0 0 -1
213 3 9.015130218150922 5.479184141018707 5.863241184806812 0 0 0
132 3 12.24795472396869 8.318230329209907 4.828743362097122 -1 -1 -1
277 4 9.885765028536621 6.1121295311346255 7.70774750758527 0 1 1
48 1 12.618251062421749 8.57451050304314 8.411675976975818 0 1 1
6 1 11.520468913087324 5.854507856066836 11.418799092520178 -1 1 0
147 3 9.301504722706785 5.091056070698001 5.504276108447059 0 -1 -2
349 4 0.5430483155380583 4.192374816181667 12.478417530031582 1 -2 2
238 3 7.150474049304569 4.200742423764338 8.86174059259037 -1 -2 -1
160 3 10.065333115053647 5.0789205393564885 1.9924675028090324 0 1 -1
5 1 10.35090043130688 7.102737977476539 7.103999082703617 0 0 0
159 3 1.3740089600425063 4.190639787378666 4.50711822141858 0 0 -1
113 3 12.775193896195638 8.087897432173056 6.3058345229551875 -1 0 0
63 2 4.655693074951175 12.490226667205956 7.099548646891608 -1 0 0
70 2 2.669004039570893 12.285970896501361 5.554250631438426 1 -1 0
254 3 2.5083777836562904 11.078920033119488 6.7058370006399945 1 1 -1
161 3 1.5100452921762106 8.993956795889474 6.598171771664303 1 0 0
215 3 5.462948835174432 8.956175595832317 8.167826885376284 -1 1 0
338 4 2.8339172503722447 13.013718034742173 8.69598550316027 0 -1 0
244 3 3.7609480575970298 2.0061798754732214 8.18482322457092 1 1 -1
110 3 1.7902484272842867 0.5483894154458958 5.43193597590029 0 1 -1
144 3 4.995786771785591 10.335634170932789 6.284728025165415 1 0 0
345 4 0.6314900824171152 1.8694790264057393 2.693685643976555 -1 2 3
29 1 4.460386215355371 12.824571316470664 7.351346272651981 1 1 2
346 4 11.928950541672542 7.428449709907486 9.970840564335886 -3 0 5
273 4 9.341626653560333 12.386632646971606 10.20147534683317 2 0 3
114 3 7.1886881755813095 11.970018231366097 9.197586410364877 0 -1 0
13 1 7.733937147484162 12.530008910995868 8.137391082919327 -1 1 0
46 1 3.1981216694468704 9.74902994470877 10.669180917736911 -1 0 1
302 4 5.1316496160892235 13.464495386752539 6.418411309127419 3 -1 -1
118 3 8.54932340056795 1.6876441879866815 7.327970470665355 -1 0 1
250 3 9.169725608151115 8.179918975663403 5.517466200375729 1 -1 -1
347 4 10.844808485175193 11.892992240378081 3.049368130078027 -1 0 4
49 1 8.856034373673449 11.436187378881176 10.88997451541274 -2 -1 0
98 2 13.068754177153128 12.580261948310461 6.91267497920668 1 0 1
136 3 13.102108660352368 11.252476702875498 5.441217404730787 0 -1 -1
8 1 12.6077734382614 0.6800883728994275 9.400488362618068 0 2 1
300 4 2.4657889929032026 11.485287864736875 8.13579808098773 1 1 -1
175 3 9.785794942561637 10.927790874072429 8.284241569830177 -1 -1 0
290 4 2.204031679993294 9.28028655043078 3.4482460229318277 -1 0 1
255 3 9.493261723685848 10.734406593269192 6.1532352829169215 0 0 -1
166 3 6.627439158023066 12.397042881055679 6.809759238019704 0 0 -2
69 2 13.10698995456855 9.08188518294508 7.219882289755057 -1 -1 1
315 4 9.21929649647214 1.8618441277994588 8.624742190648726 -2 5 0
71 2 9.74608067253235 11.855194551907474 8.583365091650373 0 0 1
22 1 12.952753004677408 11.793697255817463 9.417484761711341 0 -1 -1
299 4 13.006227423202887 11.990790111291556 11.237427848727172 3 0 1
256 3 1.233866856430472 11.872954953901814 5.761809814466535 1 0 -1
190 3 11.535585837890565 10.715593015197367 5.940154851258882 0 0 -2
204 3 8.528092930947121 11.120740107467718 6.230510416445872 -2 -3 0
58 2 12.974197332848462 9.981679764624293 6.600541165758736 -1 -1 0
287 4 4.41978690358 6.959314876120933 1.131193286767922 -1 1 4
352 4 9.655268650845791 6.240851455794516 6.168482270132925 -4 -1 -2
11 1 1.9055621998750476 3.070163369286833 10.34850788771039 0 1 -1
181 3 13.401156665610067 1.791209417560478 9.915381949603962 -1 -1 -1
100 2 1.297946745891931 3.866819672948572 10.355472146759523 0 1 -1
59 2 5.284632661824697 3.0852390980417073 12.477182918178913 1 1 0
313 4 12.015956081984378 4.315301480527289 7.855328551238267 -1 1 1
245 3 5.234484538810903 3.059104731627548 10.356081765457626 1 1 -2
139 3 1.7367516780201906 2.8080629808385327 7.799217935399778 0 1 -1
291 4 12.699074008507637 1.5459386177397754 10.496307433946722 -3 3 0
47 1 12.8103818670658 2.6295090496602986 9.232091649341966 -1 0 0
336 4 9.186231976913394 13.32696350466746 5.697366372952789 -1 0 -3
314 4 4.029409281388525 3.7501312455087303 11.596658378074688 1 3 -1
303 4 9.663813778846318 1.2088682928412542 1.2908797127844043 -1 1 1
16 1 7.021602908850469 7.320093688736043 10.457566528019527 0 3 0
348 4 9.823765304710207 5.480308951532424 9.643601042602986 1 2 0
2 1 7.50173043086872 2.4418129898598333 9.55113482144915 0 0 -1
17 1 6.952165369682485 2.40574913953575 11.208101258652574 0 0 0
126 3 6.832891513639192 2.2262490874701193 1.9384216922370536 -2 -2 1
242 3 7.269555356675772 1.0663181553389993 12.72803486279166 -1 0 0
178 3 5.755753331097623 1.7007283201071859 2.295113576562658 2 -1 0
64 2 7.185220241246129 0.6905915547943685 10.85073928098498 0 0 1
40 1 5.893186560577732 4.945428487572352 11.171268492632338 0 1 0
343 4 5.4838899366450615 5.422638235618458 2.2569675138350282 0 3 1
31 1 11.184272835061968 0.6154899245701159 9.217900575757495 1 1 0
9 1 13.158215903817595 2.6544203801761905 7.277768910433922 -1 1 -1
355 4 2.4337332564003713 4.598878682582343 2.488925784219515 1 0 2
167 3 11.633684031646261 5.845500019868007 2.7104089933909985 -1 1 1
289 4 10.564520773864118 1.3456295096736073 11.34945710500514 -1 0 -1
145 3 12.793077761470975 1.7038637026898267 11.33831044645529 -1 0 -2
146 3 5.284542223019623 5.424683781609393 11.824346071238653 -3 1 -2
172 3 9.676195097104138 3.30286855061953 12.47712584715503 -2 2 -1
26 1 8.305852403852535 2.177995520325167 10.440838410476577 1 0 0
339 4 13.384950443422042 3.8333777690825395 11.901608143941257 0 4 1
170 3 8.770564611958843 3.7153299948704444 1.8329374449634284 -1 1 0
356 4 1.9560739366576767 0.622838241237769 12.425480626539468 1 -3 2
324 4 11.239390361114665 12.114123529131891 10.850462100170436 -1 2 1
177 3 10.297927041699484 0.6620701883514157 1.3792132476948686 -1 0 1
55 2 13.41589632292019 3.319470854695425 0.6288566057238918 -1 0 0
111 3 1.5952777660619049 5.585887800383588 8.91545517566796 0 0 -1
334 4 1.4016206393849273 3.0972661487391586 11.46301161294515 0 -3 0
294 4 13.22722971302197 4.806034801940215 4.064494778959128 -4 -1 2
155 3 1.391353182303153 4.656140412402084 10.543071381624182 -1 -2 1
231 3 4.634866120192452 8.30077344104497 8.539481011038951 0 -1 0
91 2 13.020352026569562 5.441884446977164 10.530292886964657 -1 -1 0
288 4 4.915691656313635 7.0497183302959 8.766891032261425 1 -2 2
54 1 2.712997278785602 5.610843976193467 7.766754718588123 1 2 0
229 3 5.747313618078004 6.8151057489129565 1.5840724327253037 1 -1 1
87 2 3.226027088901474 6.571337390901044 10.798634300584256 0 0 -1
116 3 4.477590399366392 7.76136550235588 10.119647866224724 0 -1 -1
143 3 1.4234539325233158 4.849285075622735 8.573165338590833 0 0 0
67 2 2.3176224647596744 9.356962286362045 11.749772534981686 1 1 -1
265 3 5.176549053763505 3.038528800494941 7.253361855907472 -3 0 -1
42 1 7.684419787783629 6.113222184451612 10.526165310920085 -1 -2 0
316 4 0.8104503914121449 6.007949472789795 5.496581423904064 -1 0 -1
359 4 7.391572052517033 7.1675195634601465 10.029838717095787 1 -1 0
95 2 5.1674914255088416 5.156465403383699 0.6107622027282611 1 1 2
210 3 4.050516894838552 7.432446947621507 1.1991700689625926 -1 0 1
193 3 9.730104113279832 6.404740648488435 10.611434035264638 -1 0 0
221 3 7.926660006164997 9.852205565879764 9.471503337758218 1 -1 0
220 3 7.084326821533466 10.486612469824543 7.8714841001104325 0 -1 -1
99 2 6.027162365122441 5.658519267449338 11.720129890677239 0 0 0
195 3 7.615160294139157 6.293155066836204 11.28463661614426 -1 0 0
130 3 10.957455016293142 6.3088090019210075 11.813724331923424 -1 0 -2
133 3 10.629359108886426 9.271459478550817 9.401462302061226 -1 -1 -1
78 2 0.9409021450540953 6.808213171943691 7.838889007675722 1 0 -1
158 3 10.149942697337643 6.158829185797239 8.696727163266567 -1 0 0
235 3 11.014036220959508 7.7645097249482875 12.123328431608103 0 0 -1
264 3 10.108525551978726 7.759944124439463 7.52393989007088 -1 1 -2
307 4 10.78568669680958 7.691058728811733 12.740883858103997 -1 -1 0
196 3 12.050436541648178 8.44777035948737 10.614633524255355 1 0 -1
194 3 10.075886813032678 5.739409832839914 9.233724371172528 0 0 0
76 2 2.921190481366484 10.147134147054555 2.3451951508909064 0 -1 2
35 1 1.9707495978736613 12.29713617679851 9.994173160232968 1 0 0
174 3 13.172950814519325 9.853822564429148 8.113532534296274 0 -2 -2
157 3 3.4066372399177447 9.3546447167327 11.140676784191763 -1 0 -1
279 4 4.054121378375109 11.961748537907344 0.7493061237766847 2 -2 -3
326 4 6.056538113956774 1.7915375456744471 2.680521207623026 2 3 3
32 1 5.26853573690185 8.817321265234831 1.2762213737592583 0 2 2
335 4 10.360027830802945 12.248814444861189 8.633119477269217 2 0 0
60 2 4.517605438424501 11.260993574474323 10.551746335307467 0 0 1
198 3 5.570269707067689 2.054202883957597 11.43937613174096 0 0 -1
217 3 7.372757325980494 13.426322247412795 9.831545028148422 0 -1 -3
27 1 5.883329301324012 1.6494946745393113 9.02960032515314 0 1 -1
305 4 7.479230648807528 9.512235943312632 10.730134052551993 1 -2 0
274 4 8.80172037060029 1.2605193231099776 5.47485657389661 1 3 -2
309 4 3.649427597441952 10.008008609462799 11.612727957455842 -2 -1 2
104 2 6.704573129684295 12.89105688919161 10.185909645240143 1 1 -1
251 3 6.951186116938423 7.803388441506435 9.347890073798451 1 0 0
270 3 11.907948931484668 9.792390115624048 6.224324972562603 4 0 -1
275 4 13.456589548036494 9.465620933541164 1.3689701054792005 2 -2 2
249 3 1.3630430349432128 0.7933017302267971 11.976365709622893 0 3 -3
135 3 8.580010529925818 12.869758958978146 9.466571717834384 -1 0 0
351 4 8.88813580413822 1.3875111761747916 12.721920806404071 -2 3 0
360 4 8.605698241836159 12.1889940483732 8.121425745321705 -2 0 -1
203 3 13.227445535150604 1.3870265924650074 12.113281377649356 0 2 0
57 2 12.24136492757248 9.771588396421588 9.057984670427738 -1 1 1
354 4 12.473041492837577 9.167148327302883 7.917555926723622 3 0 1
243 3 10.091043071131011 9.138080520981955 10.264926864929128 0 0 -1
134 3 1.7493280916456473 8.015099620539694 2.3132071825293323 0 -2 1

Velocities

216 -2.7687448580449914 6.844747086243079 24.479417968995932
282 15.26072239213705 12.145307638205589 -33.76422432434649
329 17.501519117490048 22.692595485199444 -20.323300269652787
199 10.158756240443015 -14.123549653536045 -3.366802049393123
281 10.318332371128436 20.293689116528643 -14.417105446017198
44 -4.285520834527639 24.09434488874944 39.35429080567172
141 1.1171401900526656 -0.17550847217697924 19.46077802212306
129 -5.09024203663544 -9.916625174960421 10.38074106754745
317 -5.411310608738407 2.8295083465359085 -9.02856109559607
211 -11.602847159629789 -17.14203729616 7.149705383717724
66 9.11820058050549 -5.386845525501427 -7.552386313327628
260 -4.609801107147402 3.7837754271960846 -48.48173263514293
286 -1.3691853360810013 46.74669713756306 23.916883210852177
152 2.208593110626345 2.340837717514777 10.537071005178003
119 4.158961074142622 -6.371859849827414 -1.00549780068953
191 -4.5080217320508105 -5.735704974502083 -19.140110706836918
131 -0.5817983772060167 -10.903773776820694 -17.212375703173567
207 0.4838807185954871 -4.932945870981184 17.956050992787826
123 0.36301314542069374 8.008656064671284 -2.59242835531497
230 11.124925618216455 -0.5204096759305565 10.05887681277069
219 -6.40197421552788 -8.00897331057958 -6.538955208489181
296 -13.806681833607096 22.605908797570056 14.820139476802458
344 36.36101462007122 50.07031876640825 -0.7100536668843511
140 -8.936923165185377 11.616282344379911 -17.3945671104268
142 14.607439757250646 -3.1606299404167073 2.859987548780746
115 -23.4594320328822 10.438030933155863 -2.2426293590184607
72 -15.332778077939555 -12.43912530614274 -6.683102186462321
96 -0.7760685437293253 -0.9501058734476234 3.978911067633368
187 -4.318784812671593 12.589024436473759 -6.8131601853997354
65 0.5167333608437497 -17.07712365349693 2.3111182009533078
93 1.9039014631717714 -0.5646064626860459 1.9342503417812673
137 -9.497809665341316 4.317428683370462 18.932249387182473
121 9.790560895358677 -51.07980144056723 2.1433842620691914
82 24.592319522024447 6.456656812240005 0.5772323707343681
257 15.171026087764595 6.624675066135441 -16.98684824244305
122 17.291772197225978 17.035620374847543 -9.279707396241513
350 -48.73588384407361 -40.33161535752643 -52.63295757606961
107 -2.553679475767983 -9.708334139303203 22.46618125024247
328 -7.480108287887517 1.6153113812575863 10.265504944745345
237 14.855319034195027 -5.339331301917918 -2.9744993834030233
179 12.84596424653025 14.636874881442576 -1.3803999081699043
247 14.286898584390983 -12.057278683299781 -29.164682779727837
233 5.078024425014864 7.240930716202776 -22.114243215445235
109 21.507586788800605 -3.840425354065808 -11.22127379536974
154 14.287017449824766 18.203867240142028 -4.659004483590094
223 8.760340374620943 8.06082893742721 -1.8347225103381186
80 12.406350255204202 -2.4434396255726116 -7.798001869385982
124 14.649703937524272 -5.998858636680324 -28.502217373549556
319 -15.877319057810547 34.23041393261059 -42.927321320215924
312 44.598685976359384 13.28120858602632 -33.497546650869026
337 38.33505959983907 50.82942422015256 -23.550888964600688
358 6.310948786358869 -28.256256277349582 10.027756144051226
353 -2.855552228470203 -40.59656028301886 -4.5366862687992935
333 1.094215483574026 -29.55104099936224 19.104528724777307
225 -12.193078736957837 4.048705114046879 -15.732619012194252
214 -21.957979761797702 -0.9003651677678888 -7.07951129568788
150 -10.447883738903803 -17.558695021991618 19.594868220809122
323 -12.869774913317308 15.01915850827546 39.759497349355875
43 2.799975258846107 5.222410563508175 0.7983932149415787
234 -5.119014759091702 7.1799009604714445 -27.809428977858964
310 -4.378240729940932 -6.0009528437627555 17.96353501363752
332 -3.8417666482030906 43.070536102557384 1.0972633730496713
36 -23.16568468470527 -25.066645487965822 1.095060985461453
105 -15.281597170142817 15.989412059663694 14.192863867941691
272 -23.49711063517978 -26.066539773158176 -57.83440476732287
24 -30.052091629098733 7.6199067154211955 -5.526925563050838
53 -22.65511003890974 -2.1560725669706327 6.349507786903098
23 6.296484460091632 -19.91095113614884 -3.1662643910698196
209 7.251998497722263 16.222416030845807 -1.2567089201927737
101 -1.6710107658079965 -6.753627967101686 33.69833574087175
62 11.022831598501492 -20.69917714708489 14.587862108126073
261 30.50463939755231 -10.537645431768007 4.4331091661925335
79 6.929793615077855 -4.358795532276036 -11.418983914795435
15 5.799129313572598 2.8465647642896346 -16.26200961190578
127 9.11225023581592 -25.20973759318595 17.146774581334242
81 8.758653215146733 -22.567385463657104 10.318392962450888
357 -9.872705974736629 -2.3977630616635417 -8.637221966505997
278 35.69131173082983 -14.637307311262157 13.702259985588293
304 -9.774451435818285 7.524410254505236 35.89251560146185
248 -10.993729170767391 -17.948340797526054 -20.58110217084235
18 -2.641510335751031 18.310909386101457 24.40637147781775
164 5.732643635981715 -1.1211943297915101 -27.521946981495248
186 -20.55340336853112 2.3553511315984643 -1.0158559385789434
298 20.45081462104168 65.63534292128578 -2.7481205062828984
240 -2.4573031965224237 8.37112333929136 10.510051505531157
41 -2.886261565323567 15.264293525139315 -3.658606664219697