# LAMMPS data file written by generate_selected_composition_structures.py

360 atoms
4 atom types

0.0 14.010000 xlo xhi
0.0 14.010000 ylo yhi
0.0 13.280000 zlo zhi

Atom Type Labels

1 Mg
2 Si
3 O
4 He

Masses

1 24.305000  # Mg
2 28.085500  # Si
3 15.999400  # O
4 4.002602  # He

Atoms  # atomic

1 1 2.400852 2.596515 1.660000
2 1 4.604148 0.261525 4.980000
3 1 2.269158 2.073480 4.980000
4 1 0.065847 4.408485 1.660000
5 1 2.400852 2.596515 8.300000
6 1 0.065847 4.408485 8.300000
7 1 2.400852 7.266525 1.660000
8 1 4.604148 4.931520 4.980000
9 1 2.269158 6.743475 4.980000
10 1 0.065847 9.078480 1.660000
11 1 2.400852 7.266525 8.300000
12 1 0.065847 9.078480 8.300000
13 1 2.400852 11.936520 1.660000
14 1 4.604148 9.601515 4.980000
15 1 2.269158 11.413485 4.980000
16 1 0.065847 13.748475 1.660000
17 1 2.400852 11.936520 8.300000
18 1 0.065847 13.748475 8.300000
19 1 7.070847 2.596515 1.660000
20 1 9.274158 0.261525 4.980000
21 1 6.939153 2.073480 4.980000
22 1 4.735842 4.408485 1.660000
23 1 7.070847 2.596515 8.300000
24 1 4.735842 4.408485 8.300000
25 1 7.070847 7.266525 1.660000
26 1 9.274158 4.931520 4.980000
27 1 6.939153 6.743475 4.980000
28 1 4.735842 9.078480 1.660000
29 1 7.070847 7.266525 8.300000
30 1 4.735842 9.078480 8.300000
31 1 7.070847 11.936520 1.660000
32 1 9.274158 9.601515 4.980000
33 1 6.939153 11.413485 4.980000
34 1 4.735842 13.748475 1.660000
35 1 7.070847 11.936520 8.300000
36 1 4.735842 13.748475 8.300000
37 1 11.740842 2.596515 1.660000
38 1 13.944153 0.261525 4.980000
39 1 11.609148 2.073480 4.980000
40 1 9.405852 4.408485 1.660000
41 1 11.740842 2.596515 8.300000
42 1 9.405852 4.408485 8.300000
43 1 11.740842 7.266525 1.660000
44 1 13.944153 4.931520 4.980000
45 1 11.609148 6.743475 4.980000
46 1 9.405852 9.078480 1.660000
47 1 11.740842 7.266525 8.300000
48 1 9.405852 9.078480 8.300000
49 1 11.740842 11.936520 1.660000
50 1 13.944153 9.601515 4.980000
51 1 11.609148 11.413485 4.980000
52 1 9.405852 13.748475 1.660000
53 1 11.740842 11.936520 8.300000
54 1 9.405852 13.748475 8.300000
55 2 0.000000 2.335005 0.000000
56 2 2.335005 0.000000 0.000000
57 2 0.000000 2.335005 3.320000
58 2 2.335005 0.000000 3.320000
59 2 0.000000 2.335005 6.640000
60 2 2.335005 0.000000 6.640000
61 2 0.000000 7.005000 0.000000
62 2 2.335005 4.669995 0.000000
63 2 0.000000 7.005000 3.320000
64 2 2.335005 4.669995 3.320000
65 2 0.000000 7.005000 6.640000
66 2 2.335005 4.669995 6.640000
67 2 0.000000 11.674995 0.000000
68 2 2.335005 9.340005 0.000000
69 2 0.000000 11.674995 3.320000
70 2 2.335005 9.340005 3.320000
71 2 0.000000 11.674995 6.640000
72 2 2.335005 9.340005 6.640000
73 2 4.669995 2.335005 0.000000
74 2 7.005000 0.000000 0.000000
75 2 4.669995 2.335005 3.320000
76 2 7.005000 0.000000 3.320000
77 2 4.669995 2.335005 6.640000
78 2 7.005000 0.000000 6.640000
79 2 4.669995 7.005000 0.000000
80 2 7.005000 4.669995 0.000000
81 2 4.669995 7.005000 3.320000
82 2 7.005000 4.669995 3.320000
83 2 4.669995 7.005000 6.640000
84 2 7.005000 4.669995 6.640000
85 2 4.669995 11.674995 0.000000
86 2 7.005000 9.340005 0.000000
87 2 4.669995 11.674995 3.320000
88 2 7.005000 9.340005 3.320000
89 2 4.669995 11.674995 6.640000
90 2 7.005000 9.340005 6.640000
91 2 9.340005 2.335005 0.000000
92 2 11.674995 0.000000 0.000000
93 2 9.340005 2.335005 3.320000
94 2 11.674995 0.000000 3.320000
95 2 9.340005 2.335005 6.640000
96 2 11.674995 0.000000 6.640000
97 2 9.340005 7.005000 0.000000
98 2 11.674995 4.669995 0.000000
99 2 9.340005 7.005000 3.320000
100 2 11.674995 4.669995 3.320000
101 2 9.340005 7.005000 6.640000
102 2 11.674995 4.669995 6.640000
103 2 9.340005 11.674995 0.000000
104 2 11.674995 9.340005 0.000000
105 2 9.340005 11.674995 3.320000
106 2 11.674995 9.340005 3.320000
107 2 9.340005 11.674995 6.640000
108 2 11.674995 9.340005 6.640000
109 3 0.473538 2.176215 1.660000
110 3 1.861467 4.511220 4.980000
111 3 4.196457 2.493780 4.980000
112 3 2.808543 0.158775 1.660000
113 3 0.915792 0.940533 3.673248
114 3 1.419213 3.275538 2.966752
115 3 3.754218 3.729462 0.353248
116 3 3.250782 1.394457 6.286752
117 3 3.754218 3.729462 2.966752
118 3 3.250782 1.394457 3.673248
119 3 0.915792 0.940533 6.286752
120 3 1.419213 3.275538 0.353248
121 3 0.473538 2.176215 8.300000
122 3 2.808543 0.158775 8.300000
123 3 1.419213 3.275538 9.606752
124 3 3.754218 3.729462 6.993248
125 3 3.754218 3.729462 9.606752
126 3 1.419213 3.275538 6.993248
127 3 0.473538 6.846225 1.660000
128 3 1.861467 9.181215 4.980000
129 3 4.196457 7.163775 4.980000
130 3 2.808543 4.828785 1.660000
131 3 0.915792 5.610543 3.673248
132 3 1.419213 7.945533 2.966752
133 3 3.754218 8.399457 0.353248
134 3 3.250782 6.064467 6.286752
135 3 3.754218 8.399457 2.966752
136 3 3.250782 6.064467 3.673248
137 3 0.915792 5.610543 6.286752
138 3 1.419213 7.945533 0.353248
139 3 0.473538 6.846225 8.300000
140 3 2.808543 4.828785 8.300000
141 3 1.419213 7.945533 9.606752
142 3 3.754218 8.399457 6.993248
143 3 3.754218 8.399457 9.606752
144 3 1.419213 7.945533 6.993248
145 3 0.473538 11.516220 1.660000
146 3 1.861467 13.851225 4.980000
147 3 4.196457 11.833785 4.980000
148 3 2.808543 9.498780 1.660000
149 3 0.915792 10.280538 3.673248
150 3 1.419213 12.615543 2.966752
151 3 3.754218 13.069467 0.353248
152 3 3.250782 10.734462 6.286752
153 3 3.754218 13.069467 2.966752
154 3 3.250782 10.734462 3.673248
155 3 0.915792 10.280538 6.286752
156 3 1.419213 12.615543 0.353248
157 3 0.473538 11.516220 8.300000
158 3 2.808543 9.498780 8.300000
159 3 1.419213 12.615543 9.606752
160 3 3.754218 13.069467 6.993248
161 3 3.754218 13.069467 9.606752
162 3 1.419213 12.615543 6.993248
163 3 5.143533 2.176215 1.660000
164 3 6.531462 4.511220 4.980000
165 3 8.866467 2.493780 4.980000
166 3 7.478538 0.158775 1.660000
167 3 5.585787 0.940533 3.673248
168 3 6.089208 3.275538 2.966752
169 3 8.424213 3.729462 0.353248
170 3 7.920792 1.394457 6.286752
171 3 8.424213 3.729462 2.966752
172 3 7.920792 1.394457 3.673248
173 3 5.585787 0.940533 6.286752
174 3 6.089208 3.275538 0.353248
175 3 5.143533 2.176215 8.300000
176 3 7.478538 0.158775 8.300000
177 3 6.089208 3.275538 9.606752
178 3 8.424213 3.729462 6.993248
179 3 8.424213 3.729462 9.606752
180 3 6.089208 3.275538 6.993248
181 3 5.143533 6.846225 1.660000
182 3 6.531462 9.181215 4.980000
183 3 8.866467 7.163775 4.980000
184 3 7.478538 4.828785 1.660000
185 3 5.585787 5.610543 3.673248
186 3 6.089208 7.945533 2.966752
187 3 8.424213 8.399457 0.353248
188 3 7.920792 6.064467 6.286752
189 3 8.424213 8.399457 2.966752
190 3 7.920792 6.064467 3.673248
191 3 5.585787 5.610543 6.286752
192 3 6.089208 7.945533 0.353248
193 3 5.143533 6.846225 8.300000
194 3 7.478538 4.828785 8.300000
195 3 6.089208 7.945533 9.606752
196 3 8.424213 8.399457 6.993248
197 3 8.424213 8.399457 9.606752
198 3 6.089208 7.945533 6.993248
199 3 5.143533 11.516220 1.660000
200 3 6.531462 13.851225 4.980000
201 3 8.866467 11.833785 4.980000
202 3 7.478538 9.498780 1.660000
203 3 5.585787 10.280538 3.673248
204 3 6.089208 12.615543 2.966752
205 3 8.424213 13.069467 0.353248
206 3 7.920792 10.734462 6.286752
207 3 8.424213 13.069467 2.966752
208 3 7.920792 10.734462 3.673248
209 3 5.585787 10.280538 6.286752
210 3 6.089208 12.615543 0.353248
211 3 5.143533 11.516220 8.300000
212 3 7.478538 9.498780 8.300000
213 3 6.089208 12.615543 9.606752
214 3 8.424213 13.069467 6.993248
215 3 8.424213 13.069467 9.606752
216 3 6.089208 12.615543 6.993248
217 3 9.813543 2.176215 1.660000
218 3 11.201457 4.511220 4.980000
219 3 13.536462 2.493780 4.980000
220 3 12.148533 0.158775 1.660000
221 3 10.255782 0.940533 3.673248
222 3 10.759218 3.275538 2.966752
223 3 13.094208 3.729462 0.353248
224 3 12.590787 1.394457 6.286752
225 3 13.094208 3.729462 2.966752
226 3 12.590787 1.394457 3.673248
227 3 10.255782 0.940533 6.286752
228 3 10.759218 3.275538 0.353248
229 3 9.813543 2.176215 8.300000
230 3 12.148533 0.158775 8.300000
231 3 10.759218 3.275538 9.606752
232 3 13.094208 3.729462 6.993248
233 3 13.094208 3.729462 9.606752
234 3 10.759218 3.275538 6.993248
235 3 9.813543 6.846225 1.660000
236 3 11.201457 9.181215 4.980000
237 3 13.536462 7.163775 4.980000
238 3 12.148533 4.828785 1.660000
239 3 10.255782 5.610543 3.673248
240 3 10.759218 7.945533 2.966752
241 3 13.094208 8.399457 0.353248
242 3 12.590787 6.064467 6.286752
243 3 13.094208 8.399457 2.966752
244 3 12.590787 6.064467 3.673248
245 3 10.255782 5.610543 6.286752
246 3 10.759218 7.945533 0.353248
247 3 9.813543 6.846225 8.300000
248 3 12.148533 4.828785 8.300000
249 3 10.759218 7.945533 9.606752
250 3 13.094208 8.399457 6.993248
251 3 13.094208 8.399457 9.606752
252 3 10.759218 7.945533 6.993248
253 3 9.813543 11.516220 1.660000
254 3 11.201457 13.851225 4.980000
255 3 13.536462 11.833785 4.980000
256 3 12.148533 9.498780 1.660000
257 3 10.255782 10.280538 3.673248
258 3 10.759218 12.615543 2.966752
259 3 13.094208 13.069467 0.353248
260 3 12.590787 10.734462 6.286752
261 3 13.094208 13.069467 2.966752
262 3 12.590787 10.734462 3.673248
263 3 10.255782 10.280538 6.286752
264 3 10.759218 12.615543 0.353248
265 3 9.813543 11.516220 8.300000
266 3 12.148533 9.498780 8.300000
267 3 10.759218 12.615543 9.606752
268 3 13.094208 13.069467 6.993248
269 3 13.094208 13.069467 9.606752
270 3 10.759218 12.615543 6.993248
271 4 12.590787 10.734462 12.926752
272 4 7.920792 10.734462 12.926752
273 4 3.250782 10.734462 12.926752
274 4 10.255782 10.280538 12.926752
275 4 5.585787 10.280538 12.926752
276 4 0.915792 10.280538 12.926752
277 4 12.590787 6.064467 12.926752
278 4 7.920792 6.064467 12.926752
279 4 3.250782 6.064467 12.926752
280 4 10.255782 5.610543 12.926752
281 4 5.585787 5.610543 12.926752
282 4 0.915792 5.610543 12.926752
283 4 12.590787 1.394457 12.926752
284 4 7.920792 1.394457 12.926752
285 4 3.250782 1.394457 12.926752
286 4 10.255782 0.940533 12.926752
287 4 5.585787 0.940533 12.926752
288 4 0.915792 0.940533 12.926752
289 4 11.201457 13.851225 11.620000
290 4 6.531462 13.851225 11.620000
291 4 1.861467 13.851225 11.620000
292 4 13.536462 11.833785 11.620000
293 4 8.866467 11.833785 11.620000
294 4 4.196457 11.833785 11.620000
295 4 11.609148 11.413485 11.620000
296 4 6.939153 11.413485 11.620000
297 4 2.269158 11.413485 11.620000
298 4 13.944153 9.601515 11.620000
299 4 9.274158 9.601515 11.620000
300 4 4.604148 9.601515 11.620000
301 4 11.201457 9.181215 11.620000
302 4 6.531462 9.181215 11.620000
303 4 1.861467 9.181215 11.620000
304 4 13.536462 7.163775 11.620000
305 4 8.866467 7.163775 11.620000
306 4 4.196457 7.163775 11.620000
307 4 11.609148 6.743475 11.620000
308 4 6.939153 6.743475 11.620000
309 4 2.269158 6.743475 11.620000
310 4 13.944153 4.931520 11.620000
311 4 9.274158 4.931520 11.620000
312 4 4.604148 4.931520 11.620000
313 4 11.201457 4.511220 11.620000
314 4 6.531462 4.511220 11.620000
315 4 1.861467 4.511220 11.620000
316 4 13.536462 2.493780 11.620000
317 4 8.866467 2.493780 11.620000
318 4 4.196457 2.493780 11.620000
319 4 11.609148 2.073480 11.620000
320 4 6.939153 2.073480 11.620000
321 4 2.269158 2.073480 11.620000
322 4 13.944153 0.261525 11.620000
323 4 9.274158 0.261525 11.620000
324 4 4.604148 0.261525 11.620000
325 4 12.590787 10.734462 10.313248
326 4 7.920792 10.734462 10.313248
327 4 3.250782 10.734462 10.313248
328 4 10.255782 10.280538 10.313248
329 4 5.585787 10.280538 10.313248
330 4 0.915792 10.280538 10.313248
331 4 12.590787 6.064467 10.313248
332 4 7.920792 6.064467 10.313248
333 4 3.250782 6.064467 10.313248
334 4 10.255782 5.610543 10.313248
335 4 5.585787 5.610543 10.313248
336 4 0.915792 5.610543 10.313248
337 4 12.590787 1.394457 10.313248
338 4 7.920792 1.394457 10.313248
339 4 3.250782 1.394457 10.313248
340 4 10.255782 0.940533 10.313248
341 4 5.585787 0.940533 10.313248
342 4 0.915792 0.940533 10.313248
343 4 9.340005 11.674995 9.960000
344 4 4.669995 11.674995 9.960000
345 4 0.000000 11.674995 9.960000
346 4 11.674995 9.340005 9.960000
347 4 7.005000 9.340005 9.960000
348 4 2.335005 9.340005 9.960000
349 4 9.340005 7.005000 9.960000
350 4 4.669995 7.005000 9.960000
351 4 0.000000 7.005000 9.960000
352 4 11.674995 4.669995 9.960000
353 4 7.005000 4.669995 9.960000
354 4 2.335005 4.669995 9.960000
355 4 9.340005 2.335005 9.960000
356 4 4.669995 2.335005 9.960000
357 4 0.000000 2.335005 9.960000
358 4 11.674995 0.000000 9.960000
359 4 7.005000 0.000000 9.960000
360 4 2.335005 0.000000 9.960000
