LAMMPS data file via write_data, version 2 Aug 2023, timestep = 120, units = metal

28800 atoms
4 atom types

1.9693628757819184 54.0706371242181 xlo xhi
1.9693628757819184 54.0706371242181 ylo yhi
2.3334349563154504 64.06656504368465 zlo zhi

Masses

1 24.305
2 28.0855
3 15.9994
4 4.002602

Atoms # atomic/kk

1 1 3.2355163825713964 5.117670130749866 3.249077919993172 0 0 0
58 2 4.940674694803913 2.6606134816263074 5.159765471504886 0 0 0
109 3 53.517638921553534 2.6745582434400053 4.546434906281233 -1 0 0
112 3 5.312564599155568 53.65882053540865 4.624481654624088 0 -1 0
114 3 3.057200747251207 5.813457874908292 4.263084018008497 0 0 0
118 3 5.470908330620837 4.396977769501503 4.575693876812292 0 0 0
120 3 2.31093457658356 6.445738731207561 3.2913006681927897 0 0 0
115 3 4.644463782209193 4.571985915535276 62.959129708181095 0 0 -1
117 3 4.8107552148574655 4.588840422359616 6.3640233296236515 0 0 0
73 2 6.536979348213268 4.095797039907289 2.9509721778786697 0 0 0
75 2 7.28796483012807 4.9998339587312195 6.1313101439181965 0 0 0
163 3 6.323001539146493 3.1315369732887723 4.027913041127206 0 0 0
168 3 6.590243351577193 4.427607162584472 6.526677609306561 0 0 0
174 3 6.689502308020027 5.245644159685108 2.358357303682442 0 0 0
19 1 7.7971663558817115 5.052599996883906 4.028607612207984 0 0 0
76 2 8.494832051164698 2.1836705808022314 6.363599134124419 0 0 0
23327 4 4.92955208172776 3.84227390650299 4.887842959961949 0 0 1
93 2 11.584249643356435 5.155660480654664 5.847970657167574 0 0 0
166 3 9.207262272839355 3.031346713793853 2.5425015827480877 0 0 0
172 3 10.271381797511479 2.9041659383772283 5.264882582654372 0 0 0
217 3 9.741768304266795 3.5417861733547618 3.5584428479925228 0 0 0
228 3 13.134921634754317 5.620272839760357 3.493506622888439 0 0 0
222 3 12.923065707307298 4.2271138563361905 5.19975272687839 0 0 0
169 3 9.363878855208334 4.9069453719384475 2.6564731458733766 0 0 0
171 3 9.20433701417598 5.065666064598913 4.34490387171863 0 0 0
37 1 12.524866302760348 3.6840267170383534 3.931256387998452 0 0 0
94 2 13.862833564372137 2.4811121471304407 5.665573200815219 0 0 0
220 3 13.88939607890811 2.234677791498365 4.962917719647058 0 0 0
415 2 15.547090621568938 3.319378725572933 2.393287859446114 0 0 0
417 2 15.382184727784777 4.5805017270481105 5.898200520980286 0 0 0
469 3 14.217021414687078 2.998756800155732 5.009374003824268 0 0 0
225 3 13.648696336267548 5.198139566363993 5.9460713964512975 0 0 0
418 2 17.351329194097914 2.826682270850574 6.254551791207963 0 0 0
361 1 17.710981318229933 3.6307473230122693 4.693409707833639 0 0 0
472 3 16.25174613398287 2.6759827318914113 5.269502692872852 0 0 0
473 3 16.649406560329574 3.9670752358858543 5.172783071980657 0 0 0
474 3 16.286484080816386 3.932704792902719 4.979408876937197 0 0 0
478 3 16.798654528374417 3.791091750879305 5.543726038075672 0 0 0
480 3 17.324211465306004 4.929077772357886 3.5998616510666386 0 0 0
433 2 19.293242020044218 4.344151706871658 2.619324065723565 0 0 0
435 2 18.96834450429199 3.438235934426543 5.898795058592479 0 0 0
475 3 19.335468517324166 4.617327236547616 63.37319318850549 0 0 -1
523 3 19.35822776147041 4.776193466023369 2.5139660715685954 0 0 0
528 3 21.280176391173676 4.245227017886473 5.659263398184957 0 0 0
534 3 19.56302972922074 3.7414813822850954 3.4699149550069586 0 0 0
526 3 21.978453446757875 2.2200761007231065 4.406835488490947 0 0 0
532 3 21.26960342593015 3.632184410254765 4.406280345418681 0 0 0
379 1 21.955820894478443 4.832433263459868 2.886460068991104 0 0 0
577 3 23.25922248535234 5.079915156485087 5.056461498488658 0 0 0
581 3 24.921715045428627 2.2257160617976646 5.007046010935113 0 0 0
451 2 24.244681011341576 3.305140337452763 2.5108299577783653 0 0 0
453 2 23.219643952069347 3.264855815284754 5.475283238806858 0 0 0
582 3 25.769888621310614 4.051596517269781 5.557511887015654 0 0 0
588 3 24.91078373977741 4.022445255478501 63.66529574823842 0 0 -1
397 1 27.06712269976337 3.473500823694012 3.8647786747224853 0 0 0
454 2 25.513171362248485 2.4191037251483047 5.551796307782159 0 0 0
531 3 23.37691431494066 4.220609189457168 4.644630487097585 0 0 0
580 3 27.30656757284421 2.9364356274638483 5.3252181290772125 0 0 0
777 2 27.95216769979483 4.008394889148471 6.01314824570152 0 0 0
829 3 28.93780828228796 3.557062871383837 5.310497076262524 0 0 0
833 3 29.26103840199359 2.617800641464779 4.797620368416531 0 0 0
834 3 30.069645170828398 5.00655748635824 5.458194869513066 0 0 0
840 3 30.11080437640075 5.117878015022534 3.1358620981535634 0 0 0
583 3 27.861829394159486 5.887451126027216 63.61416661963467 0 0 -1
585 3 27.210914498886826 4.469567569022175 5.225727010494167 0 0 0
778 2 29.609438395522602 2.606514238141283 5.033613920627129 0 0 0
721 1 30.773494086744787 4.496550396399017 4.469328464256991 0 0 0
795 2 33.02244389860989 5.228412026144212 6.483829706330701 0 0 0
24045 4 29.906471406444034 4.408247267628873 4.507120692625451 0 0 1
883 3 32.25573877187247 3.8987656574697973 4.937229128729859 0 0 0
835 3 30.79397596335978 4.390690423453533 3.2439426745798916 0 0 0
837 3 31.646691180179108 4.289266491497374 6.209318221428392 0 0 0
888 3 33.59489954351801 5.32103511254898 4.334492238904814 0 0 0
894 3 33.71776663141231 5.309347466865397 2.960437832630338 0 0 0
739 1 35.53280777413495 4.652411178586011 2.7715387476689215 0 0 0
813 2 36.49667024078619 5.128227048549142 4.704912125055822 0 0 0
886 3 35.3063911946391 3.5001925908605696 4.444235554252648 0 0 0
892 3 34.63146051519144 2.0686445352806704 5.594191643221135 0 0 0
24043 4 41.394134542995644 2.51731811440596 5.019146433211768 0 0 1
811 2 37.34681281434619 3.7746500583239992 64.00027454367623 0 0 -1
937 3 35.911231439663794 4.703368494888537 4.877371219526995 0 0 0
941 3 37.39397844357604 2.4229130785787594 4.821153835784439 0 0 0
757 1 39.02631634356034 4.690951295857543 3.275998720638959 0 0 0
940 3 40.591347140451354 3.346297528393345 3.5029602100265076 0 0 0
942 3 36.668089783678596 4.808316381195771 3.9225328374584225 0 0 0
946 3 41.09475779514487 2.5696156235500687 5.273883751426629 0 0 0
948 3 38.2764629289346 3.852889398447398 2.7794821224628934 0 0 0
945 3 39.587854966544015 4.24253000457341 4.179865064404202 0 0 0
1189 3 40.764642487956976 3.065453120602659 3.4393140487315703 0 0 0
1192 3 42.940190214558534 2.5786278255851633 2.7477939407682 0 0 0
1194 3 42.045744361186905 4.781352464326074 5.9000274624756575 0 0 0
1200 3 42.824623142894865 6.151565452219275 3.4004086431238587 0 0 0
1081 1 43.44839973789605 4.722490008724277 3.7021361924927585 0 0 0
1135 2 40.17001897826349 3.9508345454550944 64.02473293003025 0 0 -1
1137 2 40.76436566974233 4.561349907901759 5.543776527232957 0 0 0
1138 2 44.14133895160456 2.3434265378653403 5.157684584682149 0 0 0
1153 2 46.026391053200356 3.1875050360153576 2.834086120563666 0 0 0
1155 2 44.98070645897514 4.936103138233419 5.081013835289326 0 0 0
1243 3 46.18384407692686 4.5371621155721975 4.077396145628707 0 0 0
1248 3 45.95607567943935 6.021364549144708 5.413657094038543 0 0 0
1254 3 47.267344912039306 5.983691126850825 2.527940490834033 0 0 0
1249 3 48.80166697872477 5.084332126046711 63.8427863639879 0 0 -1
1251 3 49.59492994898813 4.218645609796182 3.7081572097908695 0 0 0
1297 3 51.37092775286333 5.19628498705443 3.3352345665348575 0 0 0
1301 3 49.24838853398246 3.237630400938621 5.29913736384733 0 0 0
1156 2 46.55429484494348 2.218563798185873 5.37430017220203 0 0 0
1173 2 50.23722737151652 4.278304476102717 4.702255809816114 0 0 0
1246 3 48.13106942737262 3.200691818126308 4.891960620054018 0 0 0
1099 1 47.73401367992454 3.9874143137883853 4.043677706427608 0 0 0
1252 3 49.56488875478033 3.561782029442389 4.909933394536317 0 0 0
57 2 53.26211314633215 3.101581439289336 5.790311432487917 -1 0 0
1303 3 53.50680117433966 5.236483427023945 63.508999511093435 0 0 -1
1305 3 2.0558730439056134 3.8307480128117932 5.683015891050459 1 0 0
1308 3 49.720870708043776 5.235056229669497 2.3623883921533166 0 0 0
1172 2 51.5991639296757 2.5213842156702855 3.177038434130595 0 0 0
1117 1 52.03777642201348 4.141742345871325 3.61877258090942 0 0 0
1300 3 52.181456483643814 2.351353375303261 4.790157865151525 0 0 0
1302 3 52.03906714338279 5.399023830388023 4.658374558067893 0 0 0
7 1 4.505446117200863 7.5486822921339956 2.9147284986311615 0 0 0
63 2 2.6134079806949395 9.638111798531622 4.501606861813031 0 0 0
4 1 53.847657063888775 5.418740667987339 4.652382678954239 -1 0 0
62 2 4.900502809343104 7.295414086325279 2.394952381072449 0 0 0
64 2 4.009664090853481 6.879983325758464 4.70952180301475 0 0 0
130 3 4.330270384482092 7.307724962606465 3.578843389902136 0 0 0
127 3 53.875325240736814 7.525334218412689 4.951823304973687 -1 0 0
25 1 9.223506582705816 7.738720525858033 3.7717625498171286 0 0 0
81 2 6.104207994634397 9.375965830580618 6.1627131552481345 0 0 0
22 1 6.876703877626018 6.870030804722363 3.826367005389756 0 0 0
181 3 6.356518757782058 9.241976968866425 4.893507976506654 0 0 0
80 2 8.647376148353391 6.152602850268462 2.58844407471731 0 0 0
82 2 7.641728506938927 6.073215608334 5.720884430185239 0 0 0
184 3 8.771541738510678 5.6373848644036295 2.4507579728873456 0 0 0
97 2 10.79481756206337 8.771897957391609 2.446402599145874 0 0 0
99 2 10.446950659965587 9.539850254321552 4.7300143960985075 0 0 0
235 3 11.215009435856595 8.81716295657496 2.6264462256560592 0 0 0
40 1 10.09527461854158 6.613339446267569 5.020748954560892 0 0 0
43 1 12.138938077193508 8.209512922448175 3.528492399610006 0 0 0
423 2 15.342457477647143 7.867638987542727 5.55081104349573 0 0 0
238 3 12.414615277354594 6.6788262242736405 4.232784465306513 0 0 0
244 3 13.84436863984478 8.417370428785834 4.73112065407434 0 0 0
100 2 13.574014984873894 6.919448833472398 4.5096651894968725 0 0 0
223 3 15.382802428682156 6.156690604092045 2.9482478260284695 0 0 0
487 3 16.352565459128996 7.684670705501119 3.6780861338696123 0 0 0
364 1 14.667164974029333 5.134680928470839 4.688808722614212 0 0 0
367 1 17.390781029947938 7.909867216923611 2.677447089363861 0 0 0
439 2 18.801918697834356 8.759555433648032 3.138708573629264 0 0 0
490 3 16.885626212085352 5.373789739467101 3.595886932000996 0 0 0
496 3 17.80667213374074 7.651408173718072 4.981855484966213 0 0 0
424 2 17.932114280177657 5.359708869218695 5.866268105012476 0 0 0
477 3 19.085835530974332 6.24565738648413 4.613011702402346 0 0 0
441 2 19.43400820595609 7.708369909467615 5.51286488436038 0 0 0
385 1 21.794263815426614 9.633998923199428 4.24453725632766 0 0 0
541 3 18.748383038511793 8.250075814642088 4.524741891454656 0 0 0
545 3 21.4013366622281 7.170138052286418 4.365660465322348 0 0 0
382 1 19.40530664138812 5.77081817811642 3.085784716792414 0 0 0
529 3 22.60547148656643 6.648836661051332 63.886610119040945 0 0 -1
544 3 21.467641771499647 7.108512591018944 4.215766383699727 0 0 0
440 2 22.19412210000528 6.596170711462975 2.8051597571241005 0 0 0
442 2 21.968031272126066 5.793266828738734 5.768447628315057 0 0 0
459 2 24.535484629659226 9.421410337526762 5.025215194694125 0 0 0
403 1 26.738579419362058 8.462353502166081 3.35817349401564 0 0 0
595 3 24.47633494888426 8.855945240875048 3.546761365236069 0 0 0
400 1 24.619593677357127 6.773597015246292 4.187005926259996 0 0 0
598 3 26.051591266462424 7.010190659800225 4.229211655927068 0 0 0
460 2 25.594688282753324 6.651160285901837 6.295385132864774 0 0 0
783 2 28.58751005152361 7.664282804893513 5.55570807580104 0 0 0
724 1 27.26234602624731 6.1917944070388575 4.094971406595366 0 0 0
847 3 28.25000061620974 8.401418000696562 4.954174320240414 0 0 0
851 3 29.474271316717076 7.522400986938257 5.2202487211844755 0 0 0
727 1 30.233621124499752 9.126039566270297 3.4134012297023606 0 0 0
801 2 32.02370648582325 8.13167103731936 6.319712596049538 0 0 0
784 2 30.412736685880304 7.2911673512944715 5.109254134353725 0 0 0
850 3 29.234886955609333 6.141208786550465 2.514869993724757 0 0 0
742 1 32.82269929707598 5.803912970700639 3.6545697458849866 0 0 0
901 3 33.93711387086091 7.652312040106329 4.933353992883604 0 0 0
745 1 33.976186990723164 9.29462045451424 3.7261791260131183 0 0 0
802 2 34.90737713231615 6.778136661028981 5.523190692805337 0 0 0
904 3 35.0755396714853 6.121535144579128 4.679473079184733 0 0 0
889 3 36.573067811126506 6.6907849409159805 3.754777958561412 0 0 0
891 3 34.663534456882516 5.985229435316796 5.1978261099117855 0 0 0
819 2 37.37173325982697 9.410731104076046 4.605303392202578 0 0 0
763 1 39.85460242464104 9.746116441530255 4.43552403040753 0 0 0
760 1 37.77418417139945 6.24661569541413 2.9344375783852215 0 0 0
955 3 38.609685664632046 7.343521219783523 4.8955703116615 0 0 0
818 2 39.37765953311772 6.85922929035858 3.0145441714339523 0 0 0
820 2 38.21179283997061 7.015564356299464 6.1897778319435925 0 0 0
958 3 38.205381747415075 6.108115861649575 3.2747652182777656 0 0 0
1087 1 43.05437029649824 7.755931642015748 3.7376629406126245 0 0 0
24402 4 39.569868896838166 8.898503934225154 4.809407135369684 0 0 1
1141 2 40.24437413097472 7.621060496048212 2.3482213574242072 0 0 0
1143 2 40.636913405658476 8.637581648745558 5.03087906433992 0 0 0
943 3 41.48958471390216 6.180411980365361 63.465338615443734 0 0 -1
1207 3 42.28517813584397 8.637256989242726 3.733010597496244 0 0 0
1211 3 41.30767834072388 7.534044076402797 4.739553807636062 0 0 0
1084 1 40.475758861953274 6.7094073983896605 4.630343032204492 0 0 0
1142 2 42.35262843029971 5.584641637497054 2.3600022642421825 0 0 0
1144 2 42.76512443048952 6.534473515967371 6.1764212442414985 0 0 0
1161 2 44.8600853867585 7.986650824734083 6.18531137157056 0 0 0
1265 3 46.486763390354525 6.960293326716777 5.217219818986785 0 0 0
1210 3 43.71443817394444 5.45461339730061 2.514086126126561 0 0 0
1195 3 45.15419313892641 6.851690677640982 3.783165817732314 0 0 0
1197 3 44.79140784619651 6.67848686621534 6.227730721467503 0 0 0
1102 1 45.96938107959876 5.44283436197826 4.038695640608598 0 0 0
1261 3 44.706040452427956 8.734431731905765 3.7192625926580827 0 0 0
1177 2 49.11061349371014 8.836103955726461 2.965043846882864 0 0 0
1179 2 50.071609952755615 8.793128955067063 5.882901864047556 0 0 0
1105 1 47.52373624233032 9.310878644108987 4.103581721784545 0 0 0
1315 3 48.96428862958589 8.778393092953216 3.846727876300132 0 0 0
1162 2 48.43860213844996 6.521329331296043 5.9921539564904185 0 0 0
1120 1 48.922223671501804 6.750415555462763 3.3517856323974824 0 0 0
1264 3 46.62044532909751 5.52205049852841 4.752622175360688 0 0 0
1270 3 48.64367274036157 6.510508615211096 4.651302344138482 0 0 0
24400 4 52.08859829882503 9.835252107114957 4.6450733844115994 0 0 1
24397 4 52.356000072678704 6.211614135197735 4.34606564648164 0 0 1
1123 1 51.81915907592257 8.565490825850677 3.603483067567046 0 0 0
1318 3 51.002528847659335 6.589223270575967 4.089693972810439 0 0 0
1324 3 51.74698728948811 7.675059695344184 4.5100903866148885 0 0 0
1178 2 51.885164408758826 6.687741163042856 2.9384239724011363 0 0 0
1180 2 51.91476069904621 5.711977062105525 5.575735496645072 0 0 0
154 3 4.531821426209323 11.557261921531556 5.074570385943257 0 0 0
10 1 3.0037114838605667 11.549095625140389 4.205963369658238 0 0 0
132 3 4.589849106547604 10.494287978791776 4.165706701392139 0 0 0
138 3 2.5874923823664373 9.006645805595188 3.7164106034543223 0 0 0
148 3 5.580169160820688 9.985699526748585 3.877137645451535 0 0 0
149 3 3.6940497842598035 10.834151630531098 4.908124080678713 0 0 0
68 2 4.9713839996639155 11.62052010793038 2.7715371124833785 0 0 0
70 2 3.680461009283178 9.702751954370092 6.158383330504633 0 0 0
133 3 4.112669602450935 9.110350160544767 2.576459350809868 0 0 0
192 3 8.74272040576512 8.269966338625261 63.034557061476875 0 0 -1
86 2 8.618234788953455 11.021159417032568 2.866845352920564 0 0 0
88 2 8.918447288109085 10.47381944291534 5.620227734355749 0 0 0
28 1 7.182605783825079 10.604194862951598 3.4138603140236707 0 0 0
135 3 5.408862378048116 9.99455896665214 4.271524420156369 0 0 0
186 3 7.496842037966893 9.123375068916117 4.299759322703688 0 0 0
46 1 9.846512811799197 11.293458344859113 3.10852616645639 0 0 0
187 3 8.511963910292867 9.750683015805802 3.796335936681874 0 0 0
189 3 9.770877303254288 10.047823734874711 5.398393524985435 0 0 0
202 3 9.48860768703242 11.078435327869125 2.9420090987432372 0 0 0
240 3 11.172205232517822 10.724826779306467 5.696580788307366 0 0 0
246 3 13.307534587524897 8.653808233751757 2.7676823445900425 0 0 0
241 3 15.054550949101976 9.039412004512801 63.91752875452697 0 0 -1
243 3 15.33491593106513 10.120906048487091 4.222815368772017 0 0 0
256 3 14.088243552034806 10.973406142205292 4.333155072061403 0 0 0
106 2 13.183758010464382 10.858772021908736 4.867726929145336 0 0 0
370 1 13.84108503432246 9.864295939868667 4.597525534434995 0 0 0
262 3 14.432480410204551 11.637578482098718 5.418187974352368 0 0 0
492 3 16.190640087516318 10.06539827321651 4.994598080070511 0 0 0
498 3 15.03623325875992 9.580803423154526 3.575472561539862 0 0 0
508 3 16.895835387674744 11.419788702070264 3.791200643391649 0 0 0
428 2 16.532236355896266 11.484170088348957 2.4927656890111036 0 0 0
430 2 17.531848595547594 10.518893840836155 5.277786768647228 0 0 0
493 3 19.03609396059067 9.095382193683953 3.1876880996931902 0 0 0
495 3 17.572704584795837 8.562336582906273 4.891777509887325 0 0 0
546 3 21.28944518807596 10.842215733470864 6.606349826756137 0 0 0
552 3 20.440648037795423 8.9286732788478 3.6887558666777687 0 0 0
388 1 20.503299253568517 10.134866843500598 4.1918357182470105 0 0 0
547 3 21.459327665576044 9.120863290046586 63.10189968606746 0 0 -1
562 3 22.419719208978787 9.510512294542881 3.5634247976389215 0 0 0
446 2 21.89586145519457 9.985601478821685 3.21527067449048 0 0 0
448 2 21.96220440881645 10.354980963713272 5.39286877111741 0 0 0
549 3 23.483691367938384 10.877503248295842 4.31894233894794 0 0 0
406 1 23.59947098529023 10.717459435754128 4.465504376833724 0 0 0
617 3 24.91675605851366 11.821412220638058 5.116303632484521 0 0 0
600 3 23.666594895021365 8.658336893804641 6.007042323414733 0 0 0
606 3 24.434814201178906 9.3292492026215 2.3389858881337955 0 0 0
616 3 24.918791440090097 11.81916197819262 2.5638348060865765 0 0 0
466 2 25.27412843521143 11.236659505620398 6.133372701821269 0 0 0
601 3 26.4599454669137 10.806937021475287 3.432138319677079 0 0 0
603 3 27.25034009479478 10.48629524279896 4.406487683672504 0 0 0
730 1 28.83203317298949 10.945096017982655 4.191047704516629 0 0 0
852 3 28.914155149155405 8.697776152315116 4.579185154518939 0 0 0
858 3 28.174119092582753 10.807905992525637 3.4963638525409744 0 0 0
869 3 29.099440251346415 10.246326126625222 4.494210610035243 0 0 0
622 3 26.880965394474398 10.815924316716453 5.450194114762068 0 0 0
790 2 29.7870351838236 10.160422228581982 4.7713183806597375 0 0 0
868 3 31.864859851165996 9.463967496343717 3.482712610787906 0 0 0
748 1 32.648263476446104 9.422845744123297 4.916693793251353 0 0 0
853 3 32.12324263964422 8.867793300024115 3.5327249567254375 0 0 0
855 3 30.648940147326613 9.703397265691605 5.275924398159602 0 0 0
874 3 29.82270683323743 11.773597875424374 4.4437954331984715 0 0 0
906 3 34.11428877094644 10.384954331353583 6.159373861763322 0 0 0
912 3 33.505181054160104 8.521863181053234 62.97003523953605 0 0 -1
766 1 35.869690727682986 10.06334082911191 4.101002248299497 0 0 0
808 2 35.37117592036942 11.27126744078006 6.494112585285217 0 0 0
907 3 37.07794715640348 10.43517763653475 63.90102860819471 0 0 -1
909 3 36.43659042880799 9.968085498153009 3.6331873295173254 0 0 0
922 3 34.20208204399841 10.957993590140129 2.835748495282508 0 0 0
928 3 36.1797523369358 10.682226273563849 4.739070224888688 0 0 0
977 3 36.61884275047641 12.17293569377405 5.1289473811025035 0 0 0
824 2 39.83438329972611 9.884497512175878 3.3838589612081873 0 0 0
826 2 39.77306244219675 11.22691400595963 5.905283670302623 0 0 0
960 3 38.523913443774134 8.407914321282112 6.433188991060536 0 0 0
966 3 39.10185347582459 10.087530718749967 63.32111884585461 0 0 -1
976 3 39.13782352807855 11.379183202948028 3.119885413820339 0 0 0
982 3 38.98127716676038 10.774900841906804 5.583380866871272 0 0 0
961 3 40.82817858852087 9.601255464722565 2.806119070088487 0 0 0
963 3 41.02668424977343 8.726880292952607 3.732757871394106 0 0 0
1212 3 42.01953576378073 10.310712300845221 5.583645998671641 0 0 0
1218 3 41.51618209475856 8.712624811378939 2.751051800193985 0 0 0
1090 1 41.59309833206978 11.315203970568067 3.71182076843497 0 0 0
1150 2 42.72063522557477 10.740382577852861 5.876822494390865 0 0 0
1228 3 43.6984457194983 11.280239783014476 3.465320346982482 0 0 0
1213 3 44.97033238874864 10.344903554219787 63.76997463101394 0 0 -1
1215 3 44.41934554721948 9.94587025171511 5.997677735560296 0 0 0
1108 1 44.88894619967052 9.528560908197822 4.732204209713125 0 0 0
1266 3 47.56994347978217 8.160340981932048 3.735000405409445 0 0 0
1272 3 45.900581899661674 8.57284180999395 4.041751086019507 0 0 0
1234 3 43.79797774707218 12.887810939935635 5.595571362371305 0 0 0
1288 3 48.18426030858978 12.65460504703387 4.766049032143437 0 0 0
1282 3 48.33899242166393 11.372719407394362 3.5794396781028435 0 0 0
1168 2 47.91520848347891 10.027517498334165 4.649198560171164 0 0 0
1267 3 49.506197343187786 9.939671690893427 2.3559473544845355 0 0 0
1269 3 48.041030227216964 11.034333951778786 5.669894873851517 0 0 0
1126 1 49.73713494471654 11.520422866050932 3.1083377324372443 0 0 0
1342 3 52.09308386431793 11.0488443220587 5.0862253354753895 0 0 0
1337 3 51.20602083887759 12.5523932636795 5.3231940918610325 0 0 0
1320 3 52.356873685550156 9.623632204084704 4.992360155111912 0 0 0
1321 3 52.28599618597949 9.068846637646732 3.593755674114283 0 0 0
1323 3 52.37649752255106 11.065760003639904 4.022636401876317 0 0 0
1326 3 51.81944911086625 8.818871071465992 2.6028931911948843 0 0 0
1336 3 51.943126664850276 12.139808058742293 3.6592659058322563 0 0 0
1184 2 51.61823331679607 10.824227747028553 2.8339267747166326 0 0 0
1186 2 50.98303362050941 10.656540623266443 5.367306901371055 0 0 0
24391 4 51.24750810930127 12.340053802438417 4.349286835383796 0 0 1
24394 4 52.149502761279784 9.844848316144851 4.9742695884180135 0 0 1
1496 2 4.275286018503011 14.456378004725453 3.1192795949320717 0 0 0
1498 2 4.452299664625055 14.860033835524757 6.412580004737047 0 0 0
1552 3 4.825583457061645 14.32348292304998 3.5153451715451554 0 0 0
13 1 3.2673428625662186 12.428561460528998 4.662117866876896 0 0 0
16 1 3.166569366934575 15.641935260589328 2.858971287449422 0 0 0
145 3 2.0878446811015063 12.234654536663523 2.9812796948566853 0 0 0
150 3 3.852956226002565 13.036106385016952 4.425860807166244 0 0 0
156 3 3.0875815490155336 12.280451553438049 63.3666625435855 0 0 -1
151 3 4.650429843928475 13.686406318106771 2.7865758186371594 0 0 0
1606 3 8.246891265189781 15.5291288414132 5.115113776791674 0 0 0
1514 2 9.010380388120938 15.131221561902596 2.5488047845223805 0 0 0
1516 2 8.154384009827297 14.06755808033829 4.804049774316265 0 0 0
34 1 5.98196585828376 15.670272980730298 3.3379910424963297 0 0 0
153 3 5.885179969984041 14.504352940515973 5.615291816041097 0 0 0
85 2 5.953539704457697 12.539161548463843 2.529923205120665 0 0 0
87 2 5.562710394444105 12.054744085536306 4.699777747686118 0 0 0
199 3 5.535051271138845 12.24359371621602 4.9627212741586755 0 0 0
204 3 6.663004793799737 13.39988571901578 3.958734789012094 0 0 0
210 3 8.030607747244636 14.910327392971125 2.9437118634868162 0 0 0
31 1 9.69991628227295 13.332714715721378 3.598051881034278 0 0 0
1661 3 11.462039829223853 15.086414035980496 4.796127162366201 0 0 0
253 3 10.97001085105623 11.428772232071852 5.109125013210812 0 0 0
52 1 10.34801076758926 13.71612582893897 3.666866198084398 0 0 0
105 2 9.688224724079618 12.893970120224692 4.655802290270171 0 0 0
205 3 9.906461523868387 14.543491841864096 2.6037584823099955 0 0 0
207 3 9.985124844006073 15.3481961431933 4.938663185267024 0 0 0
258 3 11.967628988724883 12.33148937605519 3.843911203553786 0 0 0
264 3 12.8850041578539 14.718263985522174 3.4764343112978002 0 0 0
1660 3 13.561473445650131 13.845802728044655 2.8032248275779685 0 0 0
1534 2 12.584762216208818 15.423414713571166 5.416654381761879 0 0 0
259 3 15.268635213656937 13.481500528276452 2.6098503568649822 0 0 0
261 3 13.636057959219237 13.235148860172043 6.166863033463748 0 0 0
49 1 12.687118795334582 13.067179567904898 3.0097822952036406 0 0 0
505 3 14.673404536604453 13.830406339441723 2.727634278189116 0 0 0
427 2 15.328651683371648 13.113666854331457 3.015191864032431 0 0 0
429 2 14.55858012034506 12.08952726639395 5.4431982224368864 0 0 0
376 1 15.136675165223537 15.323367123060947 4.150445561441408 0 0 0
1858 2 17.81372579802432 14.98294966200962 4.64783585456232 0 0 0
1912 3 17.520429715692316 14.37009614866542 3.9836291570607996 0 0 0
516 3 15.938883535655627 13.83813340108725 2.594068960277877 0 0 0
510 3 15.028865611561667 13.836778682933042 6.295761764239145 0 0 0
373 1 17.204953405558292 12.971034722447286 3.217747638233212 0 0 0
513 3 18.977074641100074 13.169994852963466 4.424098422091874 0 0 0
511 3 18.98151320648178 13.161061274857518 3.6959592925639626 0 0 0
445 2 18.34866508248695 12.569635628055536 2.3542907892582075 0 0 0
447 2 18.43025850024558 12.425158163583875 6.419701629657822 0 0 0
1966 3 23.14365198443068 14.493306623818697 4.347788203438032 0 0 0
1876 2 21.29913533995666 14.939817170088318 6.0949631736335474 0 0 0
559 3 19.359751018688335 12.611802688409789 5.102788977877296 0 0 0
564 3 20.010773588164998 12.943103366416853 4.852827365206255 0 0 0
570 3 19.619242951936805 13.18325013884148 3.528179826186507 0 0 0
394 1 19.04659408014336 15.116374470547463 4.154782946351863 0 0 0
565 3 21.947911415197776 14.732685726271312 3.4490964590700575 0 0 0
391 1 21.09063534814946 12.901865904687453 4.264873487728201 0 0 0
1894 2 25.027346185959576 14.335569093850694 5.011729483580293 0 0 0
567 3 23.051359159065736 15.12720251298087 5.891190431643456 0 0 0
412 1 22.700121125061234 15.215446752518298 3.5539452319203018 0 0 0
613 3 25.49332430238589 12.81938633418193 3.959653699556959 0 0 0
463 2 23.078688943340026 11.861029382396527 3.1011416906759375 0 0 0
465 2 24.433549474549096 13.444216516426865 6.140211244695028 0 0 0
409 1 26.269673608713596 12.254334455770461 3.2281147024340764 0 0 0
618 3 25.62507582284912 13.096661853026434 4.483204429075975 0 0 0
624 3 24.68167184000381 13.994333503483565 63.67294051748953 0 0 -1
2020 3 27.51624233829104 15.690817556719415 3.6941160207390418 0 0 0
619 3 27.262720137689165 14.687171081894938 3.5351312021897794 0 0 0
621 3 26.757401354580377 12.899237630908122 4.472168558852337 0 0 0
787 2 28.16682951689947 12.51397376095205 3.2983790503307175 0 0 0
789 2 27.165922464183858 12.542563974615888 5.207574083194393 0 0 0
736 1 27.5885108629528 14.421803565827886 4.216880341323515 0 0 0
865 3 27.838609141304797 13.72924182624042 3.091284260978597 0 0 0
870 3 28.733929184252975 13.260593426539687 5.785074066088866 0 0 0
876 3 30.38516018928169 12.65446020381038 3.314796314940309 0 0 0
25488 4 29.17274672163836 14.846211086825779 4.547124092286267 0 0 1
2216 2 30.414533772612288 15.228197325345173 2.498021725674773 0 0 0
2218 2 29.843843807936516 15.010347429808176 5.926462021288242 0 0 0
2272 3 29.718398091290602 14.045691803127736 4.472525131968444 0 0 0
733 1 30.584869873821003 12.867552817094891 3.079962469574055 0 0 0
754 1 31.85030151927139 15.061850348680782 3.66585787764732 0 0 0
807 2 31.7901647709864 13.387236642057927 4.603789572803875 0 0 0
919 3 33.54913330173645 13.854837299498408 4.65688730833033 0 0 0
871 3 32.49991332369072 13.23372702956461 2.4292358640016154 0 0 0
873 3 32.77883996438008 14.185747735513367 4.975416967079571 0 0 0
2327 3 33.54770596997988 15.52244319756425 5.632067804121228 0 0 0
2234 2 34.38324531506282 15.775302634279479 2.624940765711757 0 0 0
2236 2 33.83375762888145 15.516640059383581 5.8974430810036385 0 0 0
2326 3 34.65765512890063 16.28235802246145 4.670596526489957 0 0 0
924 3 32.57557022536441 14.626929117712786 6.287769219659912 0 0 0
930 3 33.69872327936514 13.97859283178506 63.74488974564279 0 0 -1
751 1 35.01316871667022 12.386506468934986 4.9456169868699 0 0 0
772 1 36.16285041872622 15.194741475870293 4.88740462838671 0 0 0
925 3 36.977584815181274 13.500738751717838 3.7076090952367826 0 0 0
927 3 36.15300370082497 13.72174650933372 4.038288225373566 0 0 0
2381 3 36.24864966785102 14.744675730160491 4.409063693444043 0 0 0
2252 2 39.53530549580243 15.879752518973675 2.4191101637085097 0 0 0
2254 2 37.994530645890656 15.005654227101079 5.281178995668484 0 0 0
2380 3 39.98994865434742 13.993396844330663 4.36194323922932 0 0 0
823 2 37.393665111923504 12.903513747108772 3.250432200525958 0 0 0
825 2 36.93020635216482 12.20726532025491 4.342792875831994 0 0 0
973 3 37.660695058005814 12.898905787327056 5.1446231346179525 0 0 0
769 1 39.31694792418536 12.041138925869697 4.930469074364716 0 0 0
978 3 38.96719362981969 13.484328828366221 5.655390578733536 0 0 0
981 3 39.14976697237288 12.902169957943652 6.044379161824938 0 0 0
984 3 37.947241749252214 12.61830946825333 62.67351989910848 0 0 -1
1147 2 41.84235300497804 13.359143580569445 2.7643656487079995 0 0 0
1149 2 40.36172579313816 12.267517588162608 4.866373861232197 0 0 0
2576 2 43.98325532402268 14.208937255376096 3.1570672370531416 0 0 0
2578 2 42.282073229055186 14.785371549756531 6.13572793076214 0 0 0
979 3 40.6076526794236 14.792768451815492 63.27737511672268 0 0 -1
1225 3 42.07639244470989 12.823623000286284 3.812965404710635 0 0 0
1230 3 42.78609740306504 13.742828476065743 5.285504892947114 0 0 0
1236 3 41.709940017341964 13.35052679680565 63.243084303359176 0 0 -1
1093 1 43.0109706838948 13.886062909874738 3.609278102146867 0 0 0
1096 1 40.89959047182642 13.697861511862182 3.2431968582162343 0 0 0
1284 3 45.751535031649276 14.02254552920657 5.509787527987677 0 0 0
1290 3 46.08623132968583 14.606175565524204 3.567848598264867 0 0 0
1167 2 46.071376882906385 13.150777221519428 5.685063689063578 0 0 0