LAMMPS data file via write_data, version 2 Aug 2023, timestep = 600, units = metal

2880 atoms
4 atom types

1.4976330570720329 26.522366942927945 xlo xhi
1.4976330570720329 26.522366942927945 ylo yhi
1.419597929901263 25.140402070098702 zlo zhi

Masses

1 24.305
2 28.0855
3 15.9994
4 4.002602

Atoms # atomic

1 1 2.9004291244110867 3.528369111325175 24.522441413877722 0 0 -1
58 2 4.961019213397382 4.071207723972954 3.879128626844138 0 0 0
113 3 2.6811401680948173 20.49150516124584 3.800242817109143 0 -1 0
114 3 1.631214141994525 11.157718875866571 2.5459039088006903 0 0 0
118 3 23.649678660784463 10.562745877437141 24.6328217482993 -1 0 -1
120 3 2.8542651111345387 9.874361271091942 3.0377066976016076 0 0 0
117 3 3.816413971327547 6.117663762065151 24.890588928830887 0 0 -1
754 1 5.297283897797849 1.765606416239033 3.383994713823976 0 1 0
1721 4 9.184899744010075 25.409683461699533 23.751187912303052 0 -1 0
73 2 6.365975949416454 4.580060678737267 3.327795033842722 0 0 0
75 2 5.76052090683681 25.51110725044273 6.117161088583044 0 -1 0
163 3 4.345412290148799 3.518287677984173 23.969791897535956 0 0 -1
167 3 9.45817780497769 25.53694583711421 3.3848392545250547 0 -1 0
19 1 8.961839654192342 6.956054606193496 2.1469105371363995 0 0 0
76 2 6.936977702928806 6.466428649378189 6.109865874495676 0 0 0
166 3 11.055504461810393 3.2174832740864634 19.00831790826384 0 0 -1
172 3 10.962039150160289 26.493968830506713 2.5929608965855966 0 -1 0
217 3 7.423790927329429 25.185262486848586 24.918314034851875 0 -1 -1
80 2 6.725789124551572 5.9679340242634655 24.99617871060549 0 0 -1
82 2 6.134497025086866 8.09264790585784 3.7985001410693395 0 0 0
169 3 5.695169147093184 25.876276821289306 21.927737794506804 0 -1 -1
171 3 10.5385929821186 2.740134964085821 24.161478084055666 0 0 -1
184 3 6.7267624640106405 5.5262340856043695 17.82697091847905 0 0 -1
772 1 8.002932239132491 26.312453198262155 22.91971195693366 0 0 -1
164 3 12.08468691958739 6.149902388581575 8.967678585648482 0 0 0
1764 4 10.685568430688708 7.30376414434177 8.125963705537146 0 0 1
1724 4 12.271120370565072 9.06815631114554 6.556779321950311 0 0 1
2450 4 12.904826671099077 9.451139072809278 4.835016943659994 0 1 1
93 2 12.127455879459552 4.73887209130468 4.098225303995186 0 0 0
37 1 12.962778272311134 3.0519358169893254 1.7920001131884853 0 0 0
94 2 9.68087059258576 4.165508862162308 8.256545343938658 0 0 0
220 3 9.211433627283448 25.20841208876869 24.458857880953836 0 -1 -1
222 3 14.660197366770099 26.465427636693075 4.066374877075548 0 -1 0
226 3 15.06698740034217 3.640799700540542 5.914594367192351 0 0 0
228 3 15.936303979091457 6.794571422868761 23.742055236335062 0 0 -1
469 3 12.544434610044224 2.5833651312293133 24.710764082760193 0 0 -1
225 3 15.247148279310181 10.562932085067876 2.160935688546883 0 0 0
364 1 13.007489703615418 2.580942363712837 3.4659880109627865 0 0 0
1756 4 16.44359483367414 6.873244074487551 1.7313433747846982 0 0 1
1762 4 4.3541794941517615 9.777728188821309 9.4098686046245 0 0 1
361 1 19.548167161626047 3.456720562224945 24.983167820089875 0 0 -1
415 2 15.63173781312208 3.3141336612953407 24.37290897268508 0 0 -1
417 2 15.902300060208873 8.917958254685033 6.406950189533506 0 0 0
418 2 19.8214251833101 23.254635794237426 7.936986543724504 0 -1 0
472 3 18.25845769907756 2.4197978089134797 5.1125954994262095 0 0 0
473 3 20.37876646333575 25.208931355512735 16.17849004158221 0 -1 -1
474 3 13.397187644485557 6.405213621218975 23.683696672056556 0 0 -1
478 3 16.395860290268104 4.370983044918375 4.492082996548134 0 0 0
480 3 14.437881993989478 7.048444006709581 2.9502414734047653 0 0 0
433 2 19.760102475679822 4.702540142849173 23.748398003879622 0 0 -1
435 2 14.2349916974622 2.8553189652679967 2.9149078310118117 0 0 0
223 3 15.287637467322815 5.897325735660875 1.8572661533363064 0 0 0
424 2 17.9034326001528 5.2811517226583575 5.671699574360912 0 0 0
490 3 13.969088616143079 7.126682788488684 2.252051064960066 0 0 0
477 3 16.62619394943754 6.278459846091271 23.40079528263732 0 0 -1
471 3 16.01331458231529 6.629130705708451 23.813008411081015 0 0 -1
1226 3 19.83289529571784 4.164821335612886 10.829144980416565 0 1 0
2085 4 11.019171623901013 24.008461834486646 3.5959402705167447 0 -1 1
523 3 21.47437782530799 9.517161387873372 24.085607777507988 0 0 -1
527 3 15.667803240281353 5.201047197866075 4.654733959367967 0 0 0
528 3 19.11330899780921 6.509152548892595 23.345464405642133 0 0 -1
534 3 16.350101868974434 2.421822809812899 21.920246669782088 0 0 -1
379 1 19.81106706903264 5.735021611784746 2.3634185170770663 0 0 0
453 2 23.777440489310035 26.089897392891576 5.95528591246882 0 -1 0
526 3 23.113830096169547 5.967263328110111 5.685174609985811 0 0 0
532 3 21.384754595196036 2.773622568991869 23.98946189928155 0 0 -1
577 3 17.704339446287623 5.473698001363184 24.76879640293879 0 0 -1
382 1 20.219907376261066 3.0317678484405697 23.13559917400046 0 0 -1
442 2 21.995328819078996 3.9959855653173797 8.984051276483058 0 0 0
531 3 24.291235396070874 1.5150353458346077 3.4397416476691243 0 0 0
524 3 19.33525937997818 3.6591769858578975 6.6841576208094535 0 0 0
1280 3 20.999926062281258 5.78389361275237 6.379716942724218 0 1 0
57 2 25.285570589855446 25.528061438415193 6.600850085160541 -1 -1 0
109 3 1.867849105114222 22.9463252818463 23.92888440063936 0 -1 -1
451 2 23.713018772593458 1.826482669343367 24.085153743205247 0 0 -1
581 3 25.752668656264646 26.20173041776537 2.6925754008924456 0 -1 0
397 1 2.766709832039479 6.254099214878901 21.46582527339634 1 0 -1
454 2 24.50359335287916 5.2095124432776405 5.785818981771711 0 0 0
580 3 25.692252743661342 3.6215156046919597 4.146388015674768 0 0 0
582 3 26.307371449908977 2.0316296032532737 24.934672843649693 0 0 -1
4 1 25.477842304200426 4.1928913125968545 24.7986834354897 -1 0 -1
585 3 24.87300954540248 23.116352642785145 24.016301278831058 0 -1 -1
579 3 1.9795855039063524 21.738794312016427 7.95627458380823 1 -1 0
1334 3 4.383872785408279 25.609758274118082 5.541600445162273 1 0 0
2086 4 24.149285413773438 23.712068370575246 8.577963724253756 0 -1 1
62 2 6.1868197803338125 8.249600386270405 1.5299446131167374 0 0 0
64 2 6.170358483270664 7.609390943589873 4.229363322446923 0 0 0
130 3 24.31998079612953 7.229835522941608 2.629308002976167 -1 0 0
131 3 2.4143101607847672 11.370870068661047 24.83717210962797 0 0 -1
7 1 4.93161492023061 4.628460578966539 18.631005863855655 0 0 -1
63 2 4.678531763438954 10.572936228573093 1.5540089341205197 0 0 0
70 2 25.904687228904052 6.942724635356534 7.675440187483038 -1 0 0
132 3 8.700526203102116 9.209526078292019 20.400903766453155 0 0 -1
138 3 1.64886450872546 8.422504352970613 2.8899926945099566 0 0 0
148 3 8.262412681301674 7.633749846095975 21.39098417452852 0 0 -1
81 2 5.817264551130788 9.339330341399158 6.895455881445656 0 0 0
133 3 23.06116427301875 7.873752798246049 24.576873787210737 -1 0 -1
135 3 24.042029352354717 6.7386264449059 2.9295975164455026 -1 0 0
129 3 5.380113456182357 7.922996265763046 24.073529044239535 0 0 -1
22 1 9.3524853299757 7.09461574493855 4.930036425510801 0 0 0
181 3 5.746823806795156 6.602238950190743 10.767292442218116 0 0 0
40 1 9.546344997766692 8.688810110191003 2.7684980555768037 0 0 0
190 3 3.982982138847207 11.897657864865268 4.775773731782211 0 0 0
28 1 11.830754114546584 15.196453478024669 23.48407374491503 0 0 -1
186 3 9.089444548496246 8.489159374355863 20.434352576498164 0 0 -1
25 1 9.288853287939595 4.835434326050174 24.966485198951517 0 0 -1
88 2 9.340213871384513 10.747238563357183 7.276602189558064 0 0 0
99 2 9.622046862339564 10.582349914241696 24.40611606043545 0 0 -1
187 3 8.42658451825146 7.847469274682024 21.79533713582655 0 0 -1
189 3 3.9778136673793494 9.295283322130498 2.2170023730546373 0 0 0
182 3 5.10911126115657 7.645340200840139 2.0468718170370823 0 0 0
183 3 9.705510824076306 9.468921016282021 7.702149575391944 0 0 0
1720 4 10.282728390872515 2.507029000568063 2.140667866968218 0 0 1
1740 4 11.851721573146207 2.305843933491866 3.33587027248674 0 0 1
1742 4 26.01280019461876 8.751722864889214 3.4463549404510743 -1 0 1
1714 4 2.9448052450212137 26.135865902670233 4.385737492217121 0 -1 1
235 3 17.375675211895278 8.783590314989851 24.545218345133527 0 0 -1
100 2 15.747561186469593 8.321671580730923 3.1444807568506903 0 0 0
238 3 9.814222731724133 3.7548790517625985 22.17078480688283 0 0 -1
244 3 11.855490502649703 3.661127929230578 24.33319495546514 0 0 -1
43 1 7.531118641679396 9.547424725543094 3.835069345147631 0 0 0
240 3 11.67144117898368 9.54695654963471 3.464207977943371 0 0 0
246 3 9.158371889324199 5.811630528217317 24.163281934396927 0 0 -1
370 1 5.891297949979401 5.136616990299008 3.2641354229146553 0 0 0
1718 4 12.48318640194119 14.669729317701997 6.174907210393944 0 0 1
1717 4 10.507532285275145 7.748051766879368 25.049661303554437 0 0 0
1747 4 10.074369066700768 8.544792817934919 8.831099696145495 0 0 1
1745 4 15.07671870856834 8.7132012897318 8.33705753637329 0 0 1
487 3 12.30647105859354 5.676962398410237 1.4475410703372107 0 0 0
491 3 15.562561337746313 3.9363281019164678 1.5538766662034038 0 0 0
496 3 13.586654680787401 3.4108923767833756 23.977234262463284 0 0 -1
541 3 23.603046983635075 6.614187592418215 8.578301941687355 0 0 0
243 3 16.67607425462551 6.934276021133801 24.279786897797578 0 0 -1
367 1 21.794744835817365 4.514743760538839 21.891777227676407 0 0 -1
423 2 15.302991491627148 5.979235460730225 2.086284282016143 0 0 0
430 2 18.244304217983412 6.787775704736523 4.02990151458232 0 0 0
492 3 13.235973467428288 12.060297381504975 6.951973779295772 0 0 0
498 3 14.573981145387929 7.288763111116947 25.03919797617162 0 0 -1
509 3 16.154000356748085 12.177632294144965 4.870391173395435 0 0 0
439 2 15.859839252340457 10.026453416360354 24.814662009123865 0 0 -1
493 3 15.858176738284731 7.955209131029063 25.131170702195533 0 0 -1
495 3 12.2849633769154 6.665714986172739 1.9612522922454116 0 0 0
488 3 17.179931834951184 2.8404788805398704 24.46654038347541 0 0 -1
2079 4 11.925578456646637 24.11026972314558 7.241860467209811 0 -1 1
2082 4 16.786940167118715 12.3324815454324 9.377293508616866 0 0 1
2115 4 18.183475771497278 10.529867197131852 7.937043424034958 0 0 1
2106 4 12.094707727423021 12.04582668342305 8.400939463567045 0 0 1
545 3 23.705664135391213 2.570806580846486 7.054378018995819 0 0 0
440 2 21.531130218312775 2.845498318295453 1.8988149561606789 0 0 0
544 3 18.3764830314096 3.526510502951632 22.029269966630658 0 0 -1
388 1 20.093566582299815 10.245984954883063 5.2389805533645735 0 0 0
441 2 17.218271877746574 4.835247388343069 6.709115040275751 0 0 0
546 3 21.534494903833387 8.682646512518637 10.413560064124276 0 0 0
552 3 17.570572756948387 6.247658492436683 23.06723072123389 0 0 -1
385 1 18.70778541653426 11.315720767885619 2.2561975104607397 0 0 0
446 2 19.56073174148519 7.980705539122462 3.0327979102040885 0 0 0
448 2 22.55185289905009 9.00733808240069 5.847839491463342 0 0 0
549 3 10.169145793705388 12.00514877184302 16.543370363601014 0 0 -1
562 3 21.087442359195688 8.457645758482956 22.640381052855496 0 0 -1
387 1 20.68436928961302 10.671216762494184 3.539833470999206 0 0 0
2108 4 19.141605969192387 5.283640531815442 5.9408143516491965 0 0 1
2105 4 20.05783361696385 14.184003035102148 11.715091486153437 0 0 1
127 3 2.082953596780097 10.515026532749719 3.5888440022643433 0 0 0
400 1 24.343152107321444 5.264803195546875 3.6797012078489892 0 0 0
595 3 25.121768816193242 6.43988481689155 24.475709489780165 0 0 -1
599 3 22.502828716256616 6.703489779604854 23.63281145249219 0 0 -1
460 2 22.288978911857637 5.971009946205325 3.832052201411335 0 0 0
598 3 22.513307697630253 3.0341427474213543 24.758957411689103 0 0 -1
604 3 1.5207947533156518 4.1643984579207665 8.41953840818967 1 0 0
459 2 24.403016903877067 9.619237486544488 5.102002268401623 0 0 0
403 1 26.275189139611708 5.241947876691768 21.625949471779116 0 0 -1
600 3 23.27439674313236 6.959602259974978 4.905318044665017 0 0 0
601 3 19.269466227770504 10.30438967326681 21.850993227608015 0 0 -1
603 3 4.056045771692533 7.769872408095374 1.7626496518507884 1 0 0
410 1 2.9254014227288208 5.971945821793445 5.264843152384195 1 0 0
597 3 24.7228846280819 7.978283192750536 3.824481406077209 0 0 0
2107 4 25.65765506359691 8.364036183253909 7.248878261241644 0 0 1
2110 4 2.772677578158522 15.012959107481786 8.946587762178162 1 0 1
2098 4 21.811581665261034 8.79808292107884 1.8464270001095024 0 0 1
10 1 25.86854624685461 14.095969770983878 2.1601232557674015 -1 0 0
68 2 4.686232002835741 14.396187598910268 2.4900506039931942 0 0 0
149 3 4.324105456994063 7.200053399903775 24.212181467782635 0 0 -1
13 1 26.12843020282088 11.815942165313073 2.9423902139418034 -1 0 0
145 3 4.742500589099942 13.431925589408886 24.032611009141597 0 0 -1
150 3 24.428388953883022 11.056052538241646 2.4814066874376666 -1 0 0
154 3 2.842943009292134 9.303745284573948 24.785973381862334 0 0 -1
85 2 7.479122023894701 8.959982151419744 23.427938394211765 0 0 -1
87 2 5.31130273385434 9.926447705667991 23.68136967306897 0 0 -1
151 3 5.307559202035726 11.550054867158737 2.580785324473106 0 0 0
153 3 3.2455336214048858 12.92400250087007 22.84495244162339 0 0 -1
199 3 2.443172423960008 14.242119794949158 5.435018880826726 0 0 0
832 3 1.5577017845171877 12.4716249600099 1.4826116381522412 0 0 0
1118 1 26.03422993025895 15.152900377414584 24.84167031984976 0 0 -1
1713 4 24.135517744398967 15.922454406870118 8.80830425817405 -1 0 1
46 1 7.878932946297412 13.019055943704718 4.488503876233663 0 0 0
86 2 6.700869632651796 11.964873888789546 3.0933272828591214 0 0 0
202 3 9.983845217406591 11.338547836361785 20.022443575728616 0 0 -1
204 3 4.282895119080374 14.656155970377526 18.9295222233091 0 0 -1
210 3 9.543105094113034 18.3959182508843 24.78827744893158 0 0 -1
31 1 8.154708334854032 11.376784351319358 4.0106825198460365 0 0 0
52 1 8.139279863771858 9.909990729837126 2.263335847043042 0 0 0
105 2 6.184376933946619 10.003330008419466 3.397698893955826 0 0 0
205 3 7.036350260000699 14.450364021538673 23.843940347204843 0 0 -1
208 3 3.5959734629367635 11.715702912306735 23.61186028091422 0 0 -1
796 2 6.658017562418141 12.0997853804033 6.726096198154027 0 0 0
33 1 8.53075170808796 11.921814687360477 3.5387210831923213 0 0 0
1712 4 6.978925820231379 13.506390770023748 3.8584651115982127 0 0 1
106 2 13.718036033808243 9.178152236325896 4.287728562755402 0 0 0
256 3 14.668972134343228 10.602740044129346 2.2399744256463765 0 0 0
253 3 11.50566916316367 11.435028898946694 1.8482644331535303 0 0 0
49 1 9.369904959521044 12.3360360808925 2.331635940026609 0 0 0
258 3 10.978407060524216 10.556896395277143 21.42761334361451 0 0 -1
261 3 14.815244318691262 11.072481659763568 5.430492348176218 0 0 0
262 3 16.703018772075104 4.608235088197928 24.388890872183282 0 0 -1
264 3 20.327265914633507 21.87154094781528 4.427296630135238 0 0 0
429 2 15.151046962972563 8.4317338583655 4.027094511704483 0 0 0
505 3 11.78158756847519 14.380086274183116 19.346821701325602 0 0 -1
812 2 12.627771780479572 12.68981052439843 2.9745311671510652 0 0 0
814 2 10.942457713250464 14.430726935063067 7.353873231990202 0 0 0
1711 4 11.724923412025523 9.812760772814817 4.117631771309446 0 0 1
428 2 13.089543605984018 12.726768433871262 21.89417182216694 0 0 -1
508 3 17.689096636445647 8.353462536856707 3.457834933974644 0 0 0
259 3 15.068487759085398 12.160907507542984 20.986096071600294 0 0 -1
373 1 15.98189022410007 12.356000647022396 23.48049259156648 0 0 -1
427 2 13.347738965538559 14.480964814661151 6.1692751973425715 0 0 0
510 3 13.368165507631991 7.209349329052928 13.390019493059997 0 0 0
516 3 20.045094309343106 17.30323147929699 20.939056295255988 0 0 -1
447 2 14.216203713869442 11.559655812277269 5.174102770140612 0 0 0
511 3 16.237772040387277 13.699706520843431 4.790111074859744 0 0 0
513 3 10.045400842719033 16.479782133070067 7.481345953290869 0 0 0
1732 4 14.670005905002414 16.9895914992336 9.036913421299596 0 0 1
2073 4 19.607171266283423 6.766271410540771 4.313786949469428 0 0 1
563 3 20.391573138595472 13.297920343180161 9.902708775295377 0 0 0
559 3 17.92300976411115 11.892894522902722 23.494191741277184 0 0 -1
564 3 15.429769626760566 5.199373715716902 24.99584275306374 0 0 -1
570 3 22.70932840774154 13.60282094433798 16.68988438547651 0 0 -1
391 1 19.419760308519688 11.632529749485338 5.225194088604219 0 0 0
463 2 22.564094510944205 12.694410099943953 8.373303146867713 0 0 0
565 3 22.649346336935057 10.40425798122619 2.7418561369667023 0 0 0
568 3 24.05505984400784 17.136638229170913 2.0726802762310794 0 0 0
542 3 24.711356727626285 14.945420280352776 2.2489533653344647 0 0 0
507 3 17.457617818443723 8.033282917252642 6.1195140692376295 0 0 0
2094 4 21.75898019397274 14.661108035916389 2.1499281962091557 0 0 1
2807 4 18.111934104064254 14.387995983628125 9.77124228357352 0 0 1
2804 4 24.47782821806841 17.909375182081043 24.437941132238983 0 0 0
2806 4 24.06957772967777 8.901424151104418 11.002448597001914 0 0 1
406 1 19.033113215765134 8.454148007920121 4.324358057463463 0 0 0
617 3 24.635742420384766 11.066077903804475 24.48599416886458 0 0 -1
466 2 21.095647819830262 11.64088398539532 6.202243185367132 0 0 0
616 3 20.361792900414176 13.820542139157975 22.310231398239907 0 0 -1
67 2 24.104239327749788 9.094465552535937 2.2706509869438656 -1 0 0
69 2 25.366802838931687 10.14012497447193 6.485424318217042 -1 0 0
465 2 23.315266603640055 14.568866203411122 5.765256521578539 0 0 0
613 3 3.9091914782981414 11.615939786298739 1.8641776459597559 1 0 0
409 1 2.7136081962886625 10.090752222125182 21.670385666130223 1 0 -1
618 3 2.0010126038619136 14.79520815922301 4.953394925081474 1 0 0
619 3 1.5677013469453789 13.1706555836621 24.879278556571165 1 0 -1
621 3 3.2806692613831068 8.888686712774476 24.811566738805404 1 0 -1
622 3 6.921637986177323 13.340374129307465 24.4607403060351 1 0 -1
1174 2 20.666367663603296 12.572279491879511 2.8253784526074712 0 0 0
16 1 2.278913985340101 17.10817162843675 24.085568866476812 0 0 -1
34 1 25.26406425315222 11.929072109503885 23.327980044748557 -1 0 -1
721 1 3.671997887040248 17.153573869705 4.334169411785643 0 0 0
777 2 3.4503833485802597 19.376389583103116 8.811107967842329 0 0 0
778 2 2.2215471349099283 15.429506508914736 4.6706878390818165 0 0 0
829 3 26.24812222260937 16.50243869486883 6.17827680058252 -1 0 0
833 3 23.75337778831161 14.148236780912553 23.065140693101284 -1 0 -1
834 3 5.609940877591161 17.056680996616087 2.3273607346292424 0 0 0
838 3 2.982001154840298 13.535534198122393 10.396679736326007 0 0 0
840 3 5.610684018687067 18.22200227366322 24.6164037911528 0 0 -1
850 3 24.331946009975468 17.78564160332436 22.804545860029513 -1 0 -1
835 3 2.7955064221176507 15.051775006204645 1.4478017048461 0 0 0
837 3 8.089607759590608 17.31112577980236 3.0169498779069954 0 0 0
1299 3 24.8854470964502 14.979958816871534 4.73014487938053 0 0 0
2445 4 5.308738091985301 14.534002134731814 4.263927456757708 0 0 1
2448 4 7.392249331967403 22.07573070632963 10.391634099155397 0 0 1
2478 4 23.77451167189905 17.404908371120726 8.247981604580488 -1 0 1
2442 4 3.389195559791628 16.125965081711016 3.658334736196126 0 0 1
207 3 11.319640125270913 17.401687542360186 1.5808101289515144 0 0 0
795 2 7.130132786034347 18.83066078196962 8.851638139633492 0 0 0
883 3 8.757859702194828 16.080948106598328 22.7251779635069 0 0 -1
887 3 6.489976962889233 11.966185176243007 4.821075812280218 0 0 0
888 3 7.478053994183496 17.481569141684936 24.031413409045832 0 0 -1
894 3 10.44655335514153 16.88936187820623 23.103304695221738 0 0 -1
739 1 9.461584995353146 15.34087356249806 23.088258791630885 0 0 -1
813 2 10.421098051405467 18.06024621249179 5.019199762613161 0 0 0
886 3 6.223261172058251 17.85461306112276 2.0027257991023175 0 0 0
892 3 9.701660340268164 20.22997679515863 24.667074328323707 0 0 -1
937 3 6.075843819276537 21.06802329202583 3.723815026198109 0 0 0
742 1 2.4620057889411417 20.626477544855128 1.8989274622670267 0 0 0
891 3 6.362699114098521 17.542635220342454 1.8969214656193405 0 0 0
904 3 9.39757657463425 19.20203911282277 23.931324887582726 0 0 -1
741 1 9.104389459775032 12.748519891051071 4.95185477998778 0 0 0
2480 4 26.501968550034533 16.385142578243716 10.68427521219031 -1 0 1
2444 4 8.772926585518881 13.675497542429394 3.483632409387535 0 0 1
2440 4 5.118294913230285 12.112138588435405 9.675630588504701 0 0 1
941 3 14.648357066671732 17.304151510058265 2.808128590229413 0 0 0
757 1 9.99274958153274 18.336445212600843 23.20901618967794 0 0 -1
940 3 15.612908806694808 16.19007179873688 2.735850552624071 0 0 0
942 3 14.702534741576114 21.394197793668674 12.357435057664514 0 0 -1
946 3 15.448518177053554 14.635989121164437 9.429713181182745 0 0 0
948 3 12.211894189545795 15.821943753150778 21.445291690647352 0 0 -1
1135 2 13.118179574152256 19.071019566228596 24.539699032882098 0 0 -1
1137 2 13.05068165566289 16.10881754490554 3.62450413474788 0 0 0
1189 3 10.534379584032342 11.669741999182408 20.208043490109958 0 0 -1
760 1 12.402349316834192 21.920821478558715 3.655794518740972 0 0 0
945 3 8.138801552552573 18.60879627700749 10.454024444161169 0 0 0
958 3 6.319736351994577 18.966333724289196 22.2982226928589 0 0 -1
2476 4 15.400969241705262 15.614307612768163 4.569618456147531 0 0 1
2835 4 9.399183711528625 20.46570561151754 5.234116326395741 0 0 1
376 1 13.97371024148068 11.502655160236595 23.637093623786022 0 0 -1
394 1 21.43319822564855 12.867273751339523 3.4373210439917674 0 0 0
1081 1 18.203121908395826 14.720491904938978 2.1709997090590103 0 0 0
1138 2 14.660488851013051 16.83789225238584 4.152387251106989 0 0 0
1192 3 13.235733617653459 17.785827712484874 22.401200452222717 0 0 -1
1193 3 15.717904128506962 15.955353882909634 4.869330389103492 0 0 0
1194 3 14.124439477391924 13.902924192614627 2.440511490804547 0 0 0
1200 3 14.65874912234322 15.675657023035876 3.242394005445701 0 0 0
1155 2 16.894669581296398 17.074608532614405 4.1220132164450245 0 0 0
1210 3 20.0450663943501 15.5812070624238 19.90893924662678 0 0 -1
1191 3 15.119941266914356 12.796054946212415 6.564035098857073 0 0 0
1190 3 13.782018901169513 15.026491441747552 4.372827630474122 0 0 0
2091 4 20.732110130126685 14.905914810924095 6.10370444346428 0 0 1
2841 4 15.385738585569756 17.63979910510836 2.9790900032165384 0 0 1
412 1 17.812270504000587 13.802178414329674 24.325029232095694 0 0 -1
567 3 26.121155549917912 16.515178328899005 6.557145598367896 0 0 0
1153 2 19.487723421127793 11.134626131947755 22.866927012884553 0 0 -1
1243 3 14.226380684365479 16.3478125051945 1.6626894048486134 0 0 0
1247 3 19.1937734811754 14.260249618233578 6.509473538238422 0 0 0
1248 3 15.515235899435716 24.800319489657447 4.637596253890643 0 0 0
1254 3 22.61548699633272 17.35785695365722 19.398930697497867 0 0 -1
1099 1 17.97493963639679 16.72291441984104 25.005615078440393 0 0 -1
1156 2 19.637025177923267 16.05299339966058 5.059906741377986 0 0 0
1246 3 25.480907322710983 17.261968117621155 8.03747675405053 0 0 0
1252 3 21.726231796649706 14.174403167032443 2.2577803005286103 0 0 0
1301 3 24.83559870596731 14.025388088277781 9.945608720959529 0 0 0
1102 1 18.803302423456067 15.271501755896233 3.6244727194989137 0 0 0
1251 3 24.438394118460817 12.022877167572867 20.364835227109026 0 0 -1
1264 3 18.23771563518212 19.81516353178832 6.524098592793189 0 0 0
560 3 21.66285899039081 14.81666223906643 5.584944964313186 0 0 0
1101 1 21.42146650555471 21.312484577640312 3.655724938978046 0 0 0
2801 4 13.826806760336416 13.146324749214136 2.272613085672507 0 0 1
2832 4 24.062553189404962 19.205466279443268 3.1533972548788327 0 0 1
1173 2 26.45556074888342 17.095394026865243 5.336233463711475 0 0 0
1297 3 23.98102363815262 19.046954371431188 19.20402723654115 0 0 -1
1117 1 26.11770661558952 16.074429960999254 2.9924364673285595 0 0 0
1172 2 24.23147889414323 16.234709720661144 2.2900268969738486 0 0 0
1300 3 25.89809685491191 14.4667836638391 6.665572992401328 0 0 0
1302 3 21.971487176766722 12.509525463293034 22.717538549710298 0 0 -1
1306 3 21.055143305486645 14.113689214555599 4.525454500807292 0 0 0
1308 3 22.392985090665714 19.323849624972738 24.77507783910321 0 0 -1
724 1 24.513411147833576 18.050292726115533 2.6407302477724075 -1 0 0
1180 2 24.710533515309283 18.648586729581957 8.424854286807868 0 0 0
1305 3 24.56085305243625 17.660841067685293 1.4618197176380192 0 0 0
784 2 4.534873420890536 20.015445334200244 4.606004334939401 0 0 0
847 3 26.31693574420871 19.62949596616104 2.478417063982422 -1 0 0
851 3 8.047586896686092 19.49529946801589 3.2470134165396503 0 0 0
727 1 6.662847567500373 24.078745834083666 23.42691127334119 0 0 -1
783 2 2.5538422605399536 18.65526993306528 6.424977323132425 0 0 0
790 2 1.5384724962820466 21.583911594344883 3.9454594860915386 0 0 0
852 3 25.311058603083467 15.075461083190607 4.698846421617842 -1 0 0
858 3 24.32315447664107 24.95971060036797 24.596753680583603 -1 0 -1
868 3 4.554533803886163 15.884293194560637 24.749455781728635 0 0 -1
869 3 25.665641035839318 24.568753742553092 24.15540807001169 -1 0 -1
801 2 5.711071326222062 19.28915638110253 8.75791095388523 0 0 0
853 3 6.5911445512393785 16.99612531999241 2.641750689072009 0 0 0
855 3 3.2332366815351907 26.497037185623203 4.195149817327283 0 0 0
849 3 5.330143490528018 22.082886895902405 5.706744806543124 0 0 0
901 3 10.522167391562004 18.07306445155734 23.846292740495606 0 0 -1
802 2 7.35416210085283 18.32762116260301 6.5332457966052395 0 0 0
889 3 8.80823395161439 19.55631674734549 3.3242807791844378 0 0 0
910 3 8.174376941055574 15.420509274659729 23.870528090982795 0 0 -1
748 1 6.388499460075502 18.59736848367222 2.2704244603825448 0 0 0
906 3 7.123772477240737 19.965255362598228 2.324275078207565 0 0 0
745 1 6.607084748794511 24.32151720108963 22.086652673536825 0 0 -1
766 1 6.622965003924424 18.96660912930802 22.525985605076563 0 0 -1
909 3 7.771377149664054 15.981603434456817 24.961040687161642 0 0 -1
2465 4 16.471908698416783 21.263262168468934 8.401237679250587 0 0 1
955 3 10.885096346487469 13.008995513648278 24.722817429556017 0 0 -1
818 2 11.962669317923394 20.778658948258936 1.9390692145292467 0 0 0
820 2 9.525745690087382 18.729530463282043 5.735004390484562 0 0 0
964 3 18.26367530404745 20.165672405035153 4.3484671306002465 0 0 0
1084 1 10.91111424613956 21.221079010872366 5.7656472008436985 0 0 0
819 2 13.069778492710157 21.28912271093628 2.5675725284229207 0 0 0
763 1 12.617355474979684 22.77217675374341 25.086270126979507 0 0 -1
824 2 11.713446564802698 16.685487741495677 3.05911342692118 0 0 0
960 3 11.828546806022056 25.34910095412608 7.385909789825509 0 0 0
961 3 18.895818151303942 23.081318970283327 2.647516945505215 0 0 0
963 3 13.78183518545449 16.568951733197704 21.77397047134754 0 0 -1
1141 2 9.019396245903534 17.305566435021625 2.5987923901469365 0 0 0
1143 2 10.578876410597179 18.881750314704366 4.328892910566413 0 0 0
770 1 12.60344306981562 21.774439895006733 25.047416371609998 0 0 -1
2471 4 10.475805679355162 21.19025588506382 1.8054199007368408 0 0 1
2470 4 12.422677918317037 23.031465896827704 13.110781564601432 0 0 1
2802 4 23.37757478500576 21.218536826663403 2.125557070050686 0 0 1
1144 2 16.755684065327777 20.12631534245776 6.23405665215004 0 0 0
1207 3 17.91684221836049 22.475562588546136 24.600880986432784 0 0 -1
1211 3 14.054418577063496 20.844897810879512 25.072114784575447 0 0 -1
1216 3 15.142814044913958 21.68261923380985 3.673619681290025 0 0 0
1195 3 14.22588645015568 19.183456287062647 6.100312357040725 0 0 0
1197 3 16.90463290351169 16.67154825225456 6.006480510518735 0 0 0
1261 3 15.006309859468875 22.582753372046188 22.249303769128176 0 0 -1
1087 1 16.706595178431293 20.502221073699577 3.4481410781089976 0 0 0
1212 3 12.993188318389208 20.15045371185661 7.933379469548779 0 0 0
1218 3 12.604247553034433 20.464084456628285 19.084172452434416 0 0 -1
1108 1 11.968421312308129 20.332767854122473 23.369211306869865 0 0 -1
1161 2 21.304944975316282 22.045176304728688 5.530547016123947 0 0 0
1215 3 20.193384696423614 24.024604162995818 6.619110469954755 0 0 0
2829 4 20.254442118235943 22.21837440968966 2.549855232088643 0 0 1
1265 3 20.296531042677834 22.214492678568167 6.83522330859701 0 0 0
1120 1 20.69723410368409 18.82138324367428 4.08181867635073 0 0 0
1162 2 22.805559093694107 19.22672742020194 8.247297035286286 0 0 0
1270 3 23.93320017486965 14.398274775552341 6.2025400526763335 0 0 0
1315 3 19.391134346896145 21.85796241777673 22.20095312595067 0 0 -1
1266 3 14.798124568420048 22.445648616021167 1.4327784228492344 0 0 0
1272 3 22.52139524212258 21.152794313919756 10.003822251429701 0 0 0
1283 3 20.530973814496104 21.734855625238072 2.4946925039581505 0 0 0
1105 1 20.022678164629443 2.059852835691545 2.9214305956908024 0 1 0
1168 2 20.578125578935087 20.910311367136597 2.9168055171874716 0 0 0
1177 2 22.507244329633597 20.737915938231335 4.0711207899849065 0 0 0
1267 3 25.24739475501731 20.502187880957056 23.722513328659666 0 0 -1
1263 3 25.60480841069141 22.807916591326435 3.547507549255377 0 0 0
1178 2 26.369843485199286 18.060013199599112 2.901353490519191 0 0 0
1318 3 23.38056510647675 17.826407736505764 7.929817153036954 0 0 0
1324 3 20.663278418817985 21.45948725954625 2.7535411045664997 0 0 0
1179 2 25.8532339785862 21.701332773365696 4.86980287339791 0 0 0
1123 1 20.81826511405523 21.623547010020037 22.409418773601757 0 0 -1
1320 3 24.84137816399857 25.24026175722063 24.908857063426645 0 0 -1
1321 3 17.2129742077746 19.092618797165823 6.121541811813857 0 0 0
1326 3 26.032105609531204 20.669201420725177 2.9432588872922016 0 0 0
1106 1 24.423975872315275 17.10443807231306 24.299403860799863 0 0 -1
1298 3 23.322217455680192 19.161448115619688 24.761860756793006 0 0 -1
2830 4 24.512223602121754 21.201788633179746 2.6584138695976938 0 0 1
2794 4 2.343332233197299 18.725110087840807 9.261243894294704 1 0 1
112 3 6.0931642169830456 20.632449658162457 23.449188208348666 0 -1 -1
730 1 4.870777060227205 24.48006584083743 23.70842847562968 0 0 -1