LAMMPS data file via write_data, version 2 Aug 2023, timestep = 5200, units = metal

360 atoms
4 atom types

0.2911110441658158 13.718888955834199 xlo xhi
0.2911110441658158 13.718888955834199 ylo yhi
0.27594251723924046 13.00405748276075 zlo zhi

Masses

1 24.305
2 28.0855
3 15.9994
4 4.002602

Atoms # atomic/kk

57 2 5.362762347429692 2.0839696485287122 5.747197535132857 -1 0 1
38 1 0.6309256687018032 2.246498772148735 3.347606917479118 1 0 0
133 3 3.803827007917678 13.153521201245749 0.3454729980272562 0 -1 0
335 4 0.44112121455447717 3.358036150774619 3.2116484478046585 -1 -5 -7
2 1 1.0685872212852403 4.32381517523745 2.5363108201981364 -1 1 0
306 4 6.117349159055471 5.258910788796002 2.8465535454443347 -1 -1 -2
20 1 1.5258323218701073 2.530097512777955 3.886493091588788 0 0 1
23 1 4.731827636275056 5.145623672816949 3.4610098266688967 1 1 1
171 3 1.1211843228616338 2.569289735397135 2.206207716811673 0 -1 0
137 3 5.192694676578692 3.236417649893029 1.7838634759121406 1 1 2
359 4 0.8885498548426066 2.9316592499099507 3.8815536305850618 -3 0 -3
68 2 6.7373727161488395 2.8981235665981604 4.373714434970185 0 1 1
208 3 7.355796748698799 1.8180154985331893 4.40689607701831 -1 1 0
309 4 4.620817435527329 2.667841985400314 11.976412170215992 -1 1 -5
8 1 6.729013610259982 2.465024042795499 5.770434565821203 0 1 0
325 4 9.421263892195817 13.036372719434095 3.0438621683626446 1 -7 0
66 2 8.358328843951806 4.712848399631633 1.9389361937601475 0 0 1
290 4 7.27577683842623 1.5691983552761941 5.062253823605207 -1 0 1
134 3 4.948405899287577 2.4396354855389193 0.6000458660015812 -1 -1 -1
61 2 9.099025543921151 13.163109224658523 12.128904451089642 0 -1 -2
281 4 4.085376190342099 13.265540998743134 2.7477985913402705 1 -1 0
181 3 7.443054723756491 4.173128767146915 1.932598805267913 0 1 0
308 4 7.595841350641447 1.5358892901423151 2.0847520000856323 -4 0 -2
270 3 7.815839669145394 1.922838394600236 2.7805734051632864 -1 2 1
80 2 10.541815925443657 4.038960900532274 5.731402394259994 0 0 1
44 1 1.4336638483549449 13.08258731979382 4.882965695705301 2 0 1
224 3 9.36354431950015 4.698047508155282 12.917490697249317 -1 0 -1
358 4 0.6512413067521879 9.232940692051983 9.412450831352299 1 -6 -1
46 1 12.22489976510457 4.138991943160361 2.921730745994739 0 1 0
206 3 13.307740385520034 12.960035359490284 0.4053271775560286 1 0 -1
9 1 9.010631059870132 8.978319874454655 12.823628866870562 -1 1 0
189 3 12.85558178121525 1.4232228355758718 2.823920506728954 -1 0 0
92 2 9.046940048780673 1.3012099331162592 3.957539166524222 0 0 0
332 4 3.0969465823170603 5.312136224770491 3.810389026236982 -2 -1 -1
95 2 4.216472177592778 8.128847684011415 1.1802343095573082 1 0 1
242 3 11.968803880622726 2.2991715645771857 2.665551436455215 -3 -3 0
210 3 3.938831363947013 7.435892633420298 2.3971564921049704 2 -1 -1
54 1 2.8118405598777496 5.886145355805128 1.2126726865422768 1 1 1
301 4 10.280419137411638 6.133639001538624 1.5288659621679748 -4 3 0
286 4 0.6896920055767459 9.486334626616088 12.937287856767615 -1 -2 -1
307 4 3.2090592613926554 11.73746327998288 12.481658984403694 -1 2 -3
265 3 3.648199399386525 6.572114702499364 4.632141488489498 -1 -1 2
318 4 1.0678272154756705 4.951100358284213 6.3933546378600505 0 0 -2
192 3 0.5206421444360213 7.278760203701059 0.7384671246893563 0 -1 0
360 4 0.6994666121043034 13.270706905137441 11.203197089391374 2 0 0
255 3 0.8021043430754474 7.989581978663719 0.7485471077104778 0 0 -1
73 2 4.551567048972631 5.364035731940477 1.4587229595039712 0 -1 0
53 1 8.583654844669027 6.609231322644875 6.018824406617799 0 1 1
220 3 8.034072117642506 7.523434899504073 6.286631971949013 2 -1 1
313 4 5.707390312360149 8.41535869589925 5.451464478767928 0 2 1
176 3 8.190434329682613 5.676273661431235 1.6765338917728987 1 -1 1
36 1 9.968857564716881 8.42266381604771 4.548107770030155 0 1 1
326 4 3.132960897477799 9.358185928736592 6.605954662002813 -2 2 0
225 3 6.449293389471219 6.439778727319475 2.7186017280397397 0 -1 0
177 3 11.116811017588542 6.166952935522106 4.064674812690683 1 0 1
94 2 5.163936812276947 5.855430090306706 0.5508600957222938 1 -1 0
241 3 3.6680169480993503 6.296471396750073 2.6983113103974836 -1 1 -1
91 2 6.037911210212607 5.908534981775599 12.490261829879673 0 0 -1
352 4 4.777599097869161 8.546193115870864 3.275671965102092 0 -2 -2
190 3 7.494964785200038 5.2337236807812495 1.0123581317355166 0 0 0
203 3 5.75256551585523 6.76926111164068 2.3752809849694243 0 1 0
45 1 9.795289402125693 8.281703974194883 3.475903114904214 1 0 0
88 2 0.6185752599479334 8.747154067506766 3.580249597100082 1 1 1
215 3 1.5732564936672613 5.651087004516301 1.513613486591495 0 0 -1
216 3 12.25060958474048 6.317045993432836 0.3915339918106201 0 2 -1
247 3 10.449897762193203 4.094260214056526 11.429890038937934 0 0 -1
239 3 12.475205123894455 7.0542032762124025 3.6855141905140765 0 -1 0
331 4 8.697285213973597 5.687197003191537 2.3156891104315482 -2 -3 0
145 3 10.842709505299933 7.859662768196272 2.4062746443157437 -1 0 0
233 3 10.42835030442291 5.448280478827136 1.1827571058986437 0 -1 1
105 2 10.865104622896048 7.736141605173697 2.25760811650947 -1 0 0
129 3 11.56717327436088 8.506183447752385 2.422381313133707 -1 0 0
276 4 3.391758931917742 5.897743265570235 1.3713559417641863 1 4 -1
207 3 12.479375967238663 4.997805357221444 1.2783416348321353 0 0 1
130 3 0.49048162131769524 9.446072168386127 7.152894545374754 0 0 -1
127 3 12.51772707341322 8.291785477125142 1.0108301148523062 -2 1 -1
248 3 0.6474075199984601 5.295843982724447 12.587633214030886 2 -1 -1
85 2 2.5450656167427725 5.400220272781998 5.524685816359778 0 0 0
90 2 3.0596406500148334 8.849093676659471 5.211349942110394 1 0 1
86 2 0.9497826580342649 0.863808321481023 6.445240637570703 1 2 1
11 1 3.5094747395509027 9.873429873581795 2.3606644598712743 0 0 0
341 4 7.6381213573187186 8.595885636732056 3.480257761044667 -2 2 -2
230 3 2.9297784233554554 10.003140510268484 2.2351256751944857 1 -1 1
321 4 2.1208063252553453 9.247598159604117 4.016413700436436 0 -5 1
148 3 12.499147112841335 11.263180430601565 1.3872579092236965 -2 -2 0
161 3 3.6237313000775884 1.8184838191006953 1.1885003754609897 -1 1 1
316 4 2.525650889249812 13.117094674147694 9.06158770955134 0 -1 6
188 3 5.4117641924763 7.9329718422471664 3.169878474935492 0 -1 0
322 4 0.8675885325341576 0.8827696972304815 12.89471999356698 1 2 0
249 3 13.22936423450659 9.926646073329486 3.047739231878534 -1 0 2
162 3 2.07402378966895 11.741195287179803 1.7911203991353501 -2 -1 -2
157 3 1.295571890645928 12.926650569687375 1.2236251420420794 0 0 1
112 3 2.249473421400612 10.335716582380204 2.016774303457161 0 -2 -2
122 3 1.158630464219803 12.648467494854359 0.6225307272544771 -1 -2 0
79 2 5.153050728156152 12.13992407030539 0.3924022054057571 0 0 0
229 3 4.400514004789005 9.403676971896594 1.2298035601985169 1 -1 1
262 3 11.210441348991484 9.494007070967491 1.8150170888147106 1 -1 -1
89 2 7.539230141026274 11.18708789239152 4.350385944827722 0 1 2
12 1 6.493783321240722 10.708856301035002 3.4115777733429375 0 0 1
209 3 9.741523766744184 12.705720857606785 2.91791369787588 -1 0 0
254 3 8.016187131688447 10.770302961366664 0.5378500524754682 0 0 0
77 2 4.966505497831491 0.3802407841683434 0.7537813872063572 0 1 0
311 4 0.7787355149343325 8.412913765916969 2.1515348902989557 0 0 0
179 3 7.661775033253353 10.321423050700457 0.5158312506872053 0 0 0
310 4 4.971688337633654 0.7780513865111871 11.8441890230456 1 2 0
218 3 5.971301139106042 5.5534814176071166 2.470186610507957 0 -2 -2
101 2 6.557860999375162 12.308201458777468 1.6913701769000342 0 0 1
138 3 5.929527217407101 9.138190369531582 3.8760609065916 0 1 -1
258 3 5.340791207922616 11.042535919677228 2.3119127339269347 -1 0 0
237 3 8.494911796453511 11.255044036614176 1.8853091000985194 0 0 0
280 4 3.677803889171089 12.444351565948612 1.0852477418348645 -5 0 -1
154 3 6.501080103820613 12.591816946961774 2.9439251300833535 -1 0 0
219 3 10.072746398264666 9.161421192016775 1.976169675274484 1 -1 0
83 2 9.763803836873095 10.740189297759901 5.449314476439387 -1 0 2
47 1 13.080314411648231 10.395780001063052 3.853062984614485 1 -1 1
222 3 0.2956002350282554 11.747338785307807 2.647141365476656 1 0 0
256 3 9.861893821231618 1.0915416673986704 12.615230532399323 -1 0 -2
327 4 11.482486164368723 2.0295857829031347 8.676884363307407 -2 2 3
238 3 13.336425128379165 12.925224267663612 1.7059478637552765 -1 -2 -1
357 4 5.176415783839991 5.805029891493784 12.911778263622713 -3 -2 -4
55 2 10.606048787154403 11.815923464618862 0.556691461650621 -1 -1 0
231 3 13.471171925241467 8.940664070922146 0.4799695050220671 0 -2 -2
334 4 2.19483374156659 2.655849381466991 9.860964725910039 -2 1 -4
169 3 9.737454767867732 9.099053767775246 1.4394517498738182 -1 -1 -1
320 4 9.333576597849376 11.699115661270987 4.367834944041934 2 2 3
356 4 9.06671964571795 9.974855832520383 3.3628129573448575 -1 0 -1
126 3 1.299307747436752 3.9431117383059657 6.6444836311052216 0 1 0
153 3 0.7905592424276527 1.7012570993996787 8.043896875845874 0 1 0
173 3 0.44417698462089433 0.834899791671513 6.092180544402924 1 -2 -1
102 2 2.070772499245499 12.968573843449455 5.8059764290349865 2 -1 1
273 4 5.91936373225289 8.75973058254084 11.355010170313644 -3 -5 -4
150 3 5.787759445411461 1.1144465225377629 4.951668839248932 1 0 -1
252 3 1.1620203104732845 3.543734830857024 8.194487895737272 1 0 0
103 2 1.5575046007802682 3.492185116326346 5.906337492426165 1 1 -2
164 3 13.29493897608043 2.810744023135373 5.809679301762036 -1 0 0
56 2 2.0907628029657364 2.9819666842321224 7.255196560514038 1 -1 0
345 4 1.6526802010385497 1.778488659095831 1.0234831529705055 -3 1 1
195 3 4.258912800015505 1.1621624250909428 2.9182099352330813 -1 1 -1
76 2 1.2313697663838976 0.7405982983888628 7.463216173051681 1 0 1
343 4 2.7640575646236343 4.226564679748539 2.1558470446459044 -4 -2 -7
272 4 4.585781680851185 0.4085752900537767 8.737512280651359 1 0 -1
211 3 0.43456606838998235 13.491532009392309 4.216826308568024 0 -1 0
253 3 8.816845280195643 10.732151605296284 4.643770793226452 3 -1 -1
244 3 9.08519373795895 0.34522583600181184 4.407300222584259 1 0 -1
235 3 9.039219237900934 10.842357564430802 6.356736006459228 0 -1 -1
158 3 3.706950461233497 2.992830869098418 7.109717493376854 -2 0 -1
294 4 3.3022487586687643 3.886963675465259 5.191721067471085 -5 3 0
128 3 6.731760089893508 2.775616952180152 8.532267447368163 0 1 -1
35 1 7.8350291011642135 1.8169675014010633 6.9491251196016846 0 0 1
50 1 8.437074310542279 2.646152801314398 9.60296394621318 0 0 1
348 4 6.12035696883426 3.87676195391623 8.780084233194449 -2 0 -2
191 3 9.78859169165526 2.567999447022611 7.837639807645209 1 1 0
274 4 2.535390641603075 0.33180400593852 6.177434307126096 -2 0 0
302 4 3.187429618980948 1.153612928207572 8.842982008918716 -2 0 1
344 4 10.202915272780984 13.149755368038623 4.365364072303244 0 1 2
336 4 2.380577360198128 5.65086187070729 4.296944822508049 -2 1 0
25 1 6.0988981257575725 3.431270175956014 6.7893279455021105 1 1 0
29 1 6.7544733604753775 3.3887847326528133 4.604253954804122 0 0 1
114 3 11.910157650753447 2.270721603977789 4.361441487695927 -1 0 -1
263 3 11.005781376975673 3.9698957719287553 6.729105281494109 0 1 0
93 2 10.715444636800637 6.242334657605545 7.470719827450134 0 0 0
185 3 1.923069885598367 7.2027940194228925 7.503638718240701 1 1 0
351 4 8.695199965126221 1.7717047273227828 5.6608585099376985 -2 0 0
226 3 13.682013248466124 1.0543473456534636 6.682087318374522 0 0 0
71 2 10.68182473626364 1.8543326482173215 4.630868764581278 -1 1 0
166 3 12.50654114452492 2.4481593486338484 7.002775852460656 0 0 -1
201 3 10.032569692724856 0.312248664255012 3.464019062305621 0 1 0
261 3 11.397621612489004 1.0217548513275687 3.4825446365364146 1 1 0
123 3 10.286058127395147 3.498620485664971 8.555004988274677 -1 -1 0
278 4 0.29459181675091983 6.67156032834632 4.02854153102834 -6 1 -1
303 4 12.78491725499524 13.654281130831823 11.481170676095353 0 -2 1
16 1 12.664560335545978 4.1283588529737685 8.907668154736132 -2 1 1
139 3 12.02735178367345 1.4003895148060468 5.393587156243546 0 0 -1
70 2 0.5399153147531103 1.500482340772342 7.224710760522671 1 0 1
167 3 12.979741879538995 3.8152416486977634 6.361754544649673 0 0 0
349 4 10.305513562338241 12.235852907501545 8.123589643360095 -1 0 -2
69 2 2.374076690197881 8.98535633364294 6.447083988038196 0 1 1
141 3 7.9662427475716076 5.341485177135048 7.937994612523545 0 -1 1
151 3 3.4240729969149704 7.082192571361905 6.774079774659696 1 0 -1
236 3 3.689231660879101 4.951389599896221 8.343243524061556 1 -1 -1
49 1 1.1710518867468842 7.680957014761668 9.127061641341658 1 1 0
60 2 5.441028923020809 7.2968860398407696 5.357160402461525 1 0 0
245 3 3.991911139914226 5.38375231633009 7.840452862273519 0 -1 1
277 4 2.3347230703816635 5.822045989515044 8.86390687455047 1 0 0
304 4 11.812455333767385 5.437043084755378 8.349801522485054 0 1 0
27 1 3.973664749450783 5.5355154379729425 5.65611361675736 1 1 -1
337 4 11.257019292391607 13.400609337348794 3.1126153227806665 1 0 0
28 1 1.3843702415253447 8.735487594029333 7.409354748855364 1 1 0
81 2 1.3812538210728853 9.673789163609818 10.580358720885206 0 1 0
132 3 13.054259713811671 6.8303029231960695 8.401842959429056 -1 0 0
338 4 10.032092128441704 7.516545369352186 2.717281576700612 0 -1 -5
174 3 6.835429134549142 1.973854766233072 2.78946432863037 2 -1 0
279 4 1.5829290544000199 7.505952416823993 4.324656936698495 -1 0 0
323 4 2.9399435932711113 9.063325902105902 8.067558876093274 0 -1 0
246 3 0.3717741564410194 8.940097350003704 7.881407491148768 0 1 1
143 3 5.935079457435998 6.400822448187566 7.52140453027923 0 1 -1
259 3 4.360503450302282 2.867821918968705 7.861185051869751 -1 -1 -3
317 4 5.041919315806344 7.5039596898082825 8.383272698346941 2 -1 -1
305 4 11.465488028950752 7.5893732080001985 9.32504422923279 0 0 1
340 4 7.388290025874621 7.12284345756312 11.979527621424328 1 -1 -1
193 3 6.4500122430511215 8.569050414273995 6.775135269715274 1 1 0
51 1 8.106052842573407 5.085446903161241 2.7640259382851147 0 0 0
297 4 8.916407148402225 6.1025515656530365 4.0524099585447075 0 0 1
282 4 1.2916805597296355 4.047293373487779 6.037510522813308 -1 0 2
82 2 5.816925283375038 5.95569327136672 7.519387681263641 -1 1 0
295 4 1.9010712805569936 5.146066817184288 8.494888147045012 0 1 1
268 3 3.1083291997613203 10.05806207111521 7.3614804060204895 -3 0 -1
275 4 13.083219479212616 5.126160249778737 3.3414286717246933 -5 -1 -4
140 3 4.3541501324883365 5.789908040344711 6.255444423498163 0 -1 0
180 3 4.8761493437474215 4.723205410830584 5.18248369098332 0 -1 0
13 1 8.272802000422134 4.526414374816509 5.648360200622835 0 1 0
65 2 7.150519740948797 10.224899973978651 7.003662162857662 0 1 1
107 2 6.609608227783878 5.378161281424076 4.495476653125382 1 1 1
342 4 0.6316482300001802 9.222175822746742 1.401922826762095 2 0 -11
221 3 5.148248752446567 5.684626987100594 10.431068247047676 0 -1 1
296 4 9.211604040697356 10.644402879391567 6.696824910513622 -3 0 0
6 1 11.634987550926201 8.8898995907055 7.8645523171032785 -1 0 0
34 1 1.2347079738335998 8.741652928076864 11.088895555632988 1 2 0
354 4 4.331194397594335 5.432179906144541 0.7475800495940759 -4 1 -1
111 3 10.677763928295548 5.63106364125506 5.663723511911232 0 0 0
152 3 11.632991250380748 6.671173085122492 2.749773109559455 -1 -2 -2
19 1 10.929587619329151 8.211675266073243 6.299863318461157 -1 0 0
288 4 8.682188137589332 4.913647896327914 10.40343628295326 0 0 1
266 3 6.745199943816511 11.147542348063503 8.668567998700297 -1 0 2
204 3 12.172147116745322 4.544012501360276 6.7194066909346635 -1 0 0
121 3 5.509833433254924 9.863852216288645 5.380786092223058 1 -1 -2
14 1 4.906890751493985 9.708133634236624 6.623619950360536 0 0 0
124 3 0.9054058846320919 10.003302616792915 8.632130243697144 0 -1 0
291 4 1.3743057609138012 11.111378238457064 5.706758548847784 -1 2 0
350 4 12.63698779345485 8.107372561063166 1.7419860011427133 -5 2 2
324 4 4.328193647288326 9.683729527391147 5.427687306074194 0 0 1
330 4 3.177405244148832 6.4014140461691325 5.928521684872804 -1 -5 1
110 3 3.4347999489440904 11.317814047619333 9.98898818470148 0 -3 1
96 2 3.672517164341784 11.929254487833497 5.451671187164098 1 0 0
315 4 4.13726483480059 5.788121782051753 1.941170749320417 -1 -3 1
187 3 3.2430340319226 12.43587541199313 6.134698505224188 0 0 -1
87 2 1.8626154960710875 0.7616763036803186 5.15739390948076 1 0 0
74 2 5.209842147292168 9.728351312935647 3.768911092476926 1 -1 0
18 1 5.038882526398957 10.97240530464861 6.7933025078601315 1 1 1
119 3 3.592572278259777 10.809525805511516 4.95038935048902 -2 -1 0
100 2 7.904824688638794 0.36853464870943714 3.4079588192664 1 1 0
184 3 11.47911366654304 10.841218796224986 7.095786265619143 0 -1 1
223 3 8.588293283544957 13.51414719777491 6.122102744522164 1 -1 -1
147 3 8.75420944597602 1.9804758203429462 5.143988893277698 1 0 0
113 3 6.0769923484282256 10.370542655390171 6.995686702450998 0 -1 -1
250 3 5.256948474992521 10.58243970403985 3.998262607590382 0 0 -1
264 3 4.352304016206662 11.042768931126659 5.431871505061058 -4 -1 1
172 3 6.1469676708377134 12.044802087605444 6.975990007981622 0 -1 0
319 4 6.52106280257279 12.96996666141482 0.5317262239067069 -4 0 4
328 4 10.91260648540674 0.38201750936077683 3.4508383121910735 3 1 3
32 1 9.934507629944502 10.266536941463077 10.859992424404618 -1 0 1
312 4 2.5326694788253294 7.1033931765701945 6.723633496028643 3 -1 -1
300 4 11.559478183809073 11.783051072569823 2.9529411412470266 -2 0 -1
40 1 12.935361169870959 11.232231045117452 6.60835868467619 0 0 0
159 3 11.643408715973898 11.970370259529627 5.43886288973854 0 0 1
115 3 2.9189112937733617 1.431201157611535 8.596106642685417 1 0 -1
58 2 5.574733099660559 1.014615571419024 8.041754151961104 1 0 0
202 3 13.35587490086948 3.445769768437636 9.1541744435717 0 1 -1
355 4 6.097178182381608 3.381386722649988 11.101830628596847 1 2 0
251 3 4.749509024708499 4.3255548364502605 11.470831118267867 1 0 0
64 2 4.5609924852051655 1.1717882365376757 9.237310640591247 0 0 0
15 1 12.93791896187312 3.006037587920136 10.345626584385373 -1 1 -1
298 4 0.4555381704862643 2.839990143402662 11.65612029890936 -3 3 -1
120 3 6.04072284797152 7.112466183616428 10.173831833371436 1 2 -1
183 3 3.255499791205849 2.2597554102039963 7.957637771126134 1 1 -2
30 1 4.696313562026138 2.1854529537734715 10.771697492033766 1 0 0
39 1 1.8817869604791322 3.406651137724769 12.444397499870659 1 1 -1
287 4 6.741680796024785 2.5962670635154343 12.079499779437485 1 0 0
329 4 8.115951933262426 0.4089291627532447 6.397608683633881 3 1 -2
346 4 4.272381703617006 2.7488643538499136 0.8460555921410662 0 0 0
3 1 2.145205104056445 12.720765795752197 10.158640955671512 -1 -1 1
271 4 7.3834542600513355 5.7497439052196295 7.529012518655705 -1 3 -4
314 4 4.947471318382511 12.829554683359184 2.182853427709325 -1 -2 -1
214 3 8.968073760725048 1.1732004885990166 10.842318092900674 0 1 0
165 3 5.126143206360918 1.814975853165325 10.156918929475639 0 0 0
1 1 5.047572981362166 2.426896301299942 10.931072769646626 0 0 0
269 3 6.853367438853442 4.546215673613782 9.975516629388263 1 0 0
125 3 6.203079716682779 1.8480827590519786 12.443379046432554 0 0 0
267 3 6.697128784402621 2.8526587808499615 9.09951858006576 0 0 -1
232 3 8.969681982283376 1.921197628410299 11.48695618801873 1 0 -1
198 3 7.7070024893381746 2.3036783698244117 11.531418923933387 0 0 -2
199 3 7.2452669719863465 4.451925757711232 1.7291271651180007 1 0 1
75 2 6.465307191305512 2.4776183051807714 12.390946257899504 1 1 -1
99 2 5.59688878208907 5.209554349333695 11.077076423625732 1 1 0
257 3 10.527968341291167 2.7475904782922713 9.379928014816096 0 0 -1
118 3 5.72468143002757 5.358459184823305 7.571855686060585 -1 0 -1
116 3 13.475203533250454 13.57347796973341 9.897061816393295 -1 -1 -1
26 1 13.706250198841548 1.6620609010917675 1.5263133697076876 1 1 1
136 3 10.691531031766427 11.390825038668176 8.534310325811182 0 -1 -2
78 2 10.578120675786444 4.715639512842206 2.5526088291377746 -1 0 1
234 3 10.321071329575549 13.36264885459103 0.28725315834891624 0 -1 1
48 1 13.163023379003896 4.429844149777583 12.945986989936404 1 2 1
163 3 9.478373843960448 4.874419347470932 10.997928164318111 -2 1 -2
7 1 8.05929392110655 5.833510321809956 8.402586121030872 -1 2 -1
104 2 13.451296271797279 4.516087463951765 11.178449261626369 0 0 0
186 3 12.35265416304981 9.367440927429286 8.366127625416153 -1 -1 -1
240 3 6.65366067413385 4.136667749690806 9.024551737369228 0 1 -1
217 3 13.115929366471097 11.37736146305782 1.3773520985677494 -1 -2 1
97 2 10.953952318888867 3.093077369986307 11.233568999313194 0 0 0
17 1 3.6814092198969988 7.9645871480006525 12.86677221101134 0 0 0
212 3 4.064427704744578 9.095483243084512 9.01479214651033 1 -2 -1
228 3 12.667216307682 8.869432656564001 1.4360248700362066 -1 0 -2
178 3 3.1815625920979773 8.073783124869578 10.402513899367014 1 -1 0
5 1 3.382794863504239 6.422387516275248 12.150925938601409 0 0 1
347 4 0.5127472966381582 2.423361450383917 3.9823694260313727 1 1 -2
155 3 1.9577164759492156 6.6928611946824805 7.695276640750743 0 0 0
285 4 4.0187337114711825 8.718425355690606 9.045074145570005 -1 -1 0
41 1 2.5259675752166086 4.453204266066497 10.40665249630725 1 0 1
37 1 5.065988944522894 9.438314817069987 10.687199023659197 1 0 0
142 3 3.7797917704081647 9.18515024973458 0.8840660355408937 0 -1 1
98 2 4.373547701705972 5.094537137868444 12.204328022945173 1 0 -1
160 3 3.097144480241964 6.233723806167794 12.09361949625415 1 1 1
72 2 3.730618120610158 7.61243826292429 8.3318189564711 0 0 -1
194 3 2.3530620998366216 4.081139883560859 9.67715434740752 0 -1 -1
170 3 4.5449576932453555 11.167819601436147 12.26928420224806 0 0 1
10 1 9.576729437232238 7.941777438607374 10.738589735566162 0 0 1
299 4 6.343605021975555 0.8281183725394181 8.904952018756642 0 1 2
135 3 8.253650304263216 8.108673184593776 10.980583540516902 -1 0 -1
292 4 9.13954620210329 5.793863638708264 4.945484267287231 0 1 -4
117 3 6.979868259687339 5.085221847248296 11.62162922836285 -1 -2 -2
333 4 6.379407037887517 6.934744801186011 4.971666947310902 0 1 2
156 3 6.132421869415289 10.379680550394 6.863718714514972 -2 1 0
4 1 12.109137341015646 5.324613917812461 8.990425584156112 0 0 -1
33 1 9.628735088185827 8.031982511639043 3.1802914105783 0 1 0
149 3 13.11263420398734 6.414358449642901 9.461158291144754 -1 0 -1
196 3 10.616668473310405 11.492434446843372 9.743683923019237 -1 0 0
205 3 9.485386354559964 8.484718970097948 8.890978976622707 0 0 -3
197 3 6.427387861355572 5.6961667199504395 7.048461694641575 -1 -1 -1
67 2 11.69368600335443 7.00890465432827 10.481401796896012 -2 1 -2
353 4 6.964316597889635 8.897206529630719 6.714716372189607 0 1 0
260 3 12.702720608676902 9.072300916679325 9.21894244395916 0 0 0
144 3 1.297461664557569 5.047275402638983 9.518432543277186 0 0 -2
227 3 12.496013969375174 7.253231218901141 10.49648174389602 -1 -2 -1
213 3 7.4623950121144755 5.039491331719004 12.741037405156487 -1 0 0
63 2 2.4411931780264013 12.729212231388466 12.014076401423898 0 0 -2
175 3 1.8190582302133393 8.580850808347915 11.35904406103439 -1 -4 -1
200 3 3.0003586385822443 3.1780503698432265 11.616798780646114 1 2 -1
293 4 12.511041303089804 6.30058307484161 4.452009148837425 -3 3 -1
108 2 13.296478204926863 12.392555842753357 9.271483634277372 0 0 0
62 2 3.3154733628167685 10.825502964217947 10.025234045520683 0 0 -1
43 1 2.1016454115012086 12.963639033390741 11.93671102553816 1 0 0
168 3 2.4627196659795683 10.364868961762625 11.892971772391078 0 -3 -1
339 4 4.9926107132478705 10.683047514630115 7.463455714028574 2 1 -1
182 3 2.1769645990731776 9.716004686838456 11.505719713371585 0 0 -1
131 3 3.056391543003498 10.837126791801285 2.7365833408333278 -1 0 0
84 2 5.324033042507022 11.823739873264408 8.175328489127354 0 0 0
289 4 7.598862410614788 10.16249906448801 10.640194655597357 -2 0 0
109 3 7.858757379541799 0.9562251112268826 11.551868101156805 0 1 -2
42 1 10.899919492914123 11.043390461828565 0.6580151746771212 1 0 1
52 1 6.487298210966721 8.791933035627952 12.091394219199694 1 1 0
59 2 6.803404512557454 0.7406952279194537 9.928201962527474 -1 0 0
283 4 4.576097783522329 7.263561042953478 9.90968074293764 2 1 0
284 4 8.212817280139415 7.930216101828243 5.170578392161363 2 -2 -1
243 3 6.769053996251664 9.999103278940702 11.193526285129296 0 -2 -2
106 2 9.858802967374775 2.1294727508898523 10.84796978100056 1 1 0
21 1 12.94790596803852 12.556510723901862 1.1165388019365632 0 -1 1
24 1 10.75097036422683 8.38028870521439 11.567984894811485 -1 -1 -1
146 3 13.506354558567562 12.777687622491278 11.700514685932506 -1 0 0
22 1 11.7489870874481 10.32097565200474 10.61081851299201 0 0 0
31 1 10.846566275238114 11.035026669330247 10.6502072154112 0 1 0

Velocities

57 4.60402484125806 -3.7294794091281824 14.816064041200459
38 -0.7139618040078528 3.253523358119752 -1.3442441250961132
133 12.46842508851387 -15.088665578762482 2.102113374626795
335 -4.759862507219555 -2.4328807979748848 19.64371426538679
2 -26.52295619840885 5.933355141737085 6.860013328957005
306 38.40080651929161 23.378533347124282 23.064760355691792
20 -25.42758276276663 4.04233857100229 14.050566841213856
23 17.611815570445604 8.666983973590357 10.578024528412747
171 -6.920479494936033 -16.455828650209675 -0.3125800000003406
137 14.12204147382826 -10.048511996858295 6.80412274455392
359 -36.38549940866543 -7.554983667814751 31.821933813567014
68 -4.475591944096645 -2.1181045306356494 10.342413185653646
208 -1.4593493670239779 -2.2388420661506196 14.19977128295964
309 -25.894229497586885 8.688480325399151 26.16757969749418
8 -10.211509029537586 10.221553488500438 23.826160289619295
325 3.1559562865588373 -9.154713099181453 8.963505866714497
66 -1.8029148461378441 -3.782608114675179 6.75362680709047
290 -4.8488515560417484 -17.776720177449473 4.2704203382242
134 -9.60737710827052 -10.041772877099993 5.367898486430606
61 0.7459168974186408 -22.89448213034894 -7.716100913969059
281 -34.81648528655742 7.26976087006378 34.63386443831833
181 8.52117939478464 -5.038934941924659 3.8374855444358786
308 -25.90570391476257 8.366921245489252 -16.81360765774372
270 -32.724200939475594 1.5747452618969038 -6.662527469583492
80 -5.923819774081945 3.95307265802878 5.872954092184591
44 12.157668017215899 -8.57910717223703 1.9157120251922077
224 -0.8770222407088929 10.196198760799058 -20.863759690024587
358 -9.852781781401761 -71.57830422718814 -49.70268017881735
46 10.469587822721063 -5.418054378351928 -3.9924528769666434
206 2.062667240168714 -7.98532840218283 -13.378529096086826
9 -11.878783816748893 41.94986176935826 -5.547406572276099
189 -6.622325430154297 -15.793701006360658 -1.7062540167239808
92 -4.590793821171227 -9.168690228384579 -2.828076803461258
332 -20.225375391112426 -15.500004104247449 21.110734838819305
95 -2.7706659547996635 7.958582785891418 -2.724717106654174
242 -48.14950216349316 -24.590790065962214 -15.242028768969538
210 9.60237002320247 -13.594394016012856 -15.377446868121137
54 -14.882592600841207 6.370938905558462 -27.241169153754342
301 -32.66761844918906 -0.6986082964753993 -8.339478365001266
286 -25.59703223332961 19.571356860833568 -5.286530688761869
307 -1.3443031692004919 50.376659649983544 -3.190970571073935
265 0.35826127241897054 -7.335092863457154 25.42761356833241
318 -6.983713215639993 -7.136755721579634 17.03994827765178
192 -14.603732974577591 -4.771751310314407 -2.1983109365132996
360 -17.59945050086897 47.807305463814835 -26.859099348462376
255 -8.606677804515034 -9.040867029216816 -2.6873889823307193
73 7.082003048893341 -0.31400002746195865 10.272685331444208
53 9.788791885396463 -0.8761388205612416 14.124647066906093
220 0.41744704479346306 30.5698834821777 25.168756256504633
313 -42.43250870927744 14.374614219655204 20.791060601292873
176 8.585793792830813 -16.416884397506553 -8.502643151060179
36 16.005525981210813 1.511715188830931 22.017493765910373
326 -46.07353900736988 22.44349305640081 13.751553505463466
225 7.078947586284651 -3.8246990373716594 6.246024764816823
177 34.07278102151699 -21.192665538282377 16.191247330917093
94 -1.9973673515418802 -3.3949325431480943 4.393305535303979
241 -27.408357822905355 1.3644999690823256 -5.228330252930832
91 -4.577844357991212 5.574642325098152 0.18406599084050718
352 -13.731630152091158 7.883605495572223 22.98496103626507
190 1.3976213710357932 -2.7080304584468022 16.02160086005923
203 7.140770172274676 -3.702556565263055 -6.769865677480465
45 -0.6439664119522711 9.75759613457633 -3.692256828160435
88 13.689179496453871 0.8147309434416903 8.70442924968814
215 17.95749787801015 -14.536562774015591 -10.79935911533139
216 -8.58157976387232 21.840736190919344 6.763142578920844
247 -2.960477156084503 -10.329852266995053 -12.561560487515496
239 -11.504667832618532 1.408552795395908 -5.231558669299537
331 -17.57173407845601 -14.154839600027262 12.445147627397182
145 -1.5134607930542519 2.1341356094828208 -1.6000472457978265
233 -2.610982620978582 -11.09899762329386 -1.6939094950818907
105 -11.582686436547766 -16.81858697018658 -6.5653626208682665
129 27.31789398217652 25.50598504684556 0.4042178185974643
276 47.972027852195374 -17.43762088968835 8.265586712579049
207 -4.284828203377092 2.2006834236693535 10.227666498156957
130 8.930686687184759 4.306292734208389 25.11893941618214
127 1.4822855167217803 -1.7297870103175916 -2.95532863087981
248 39.93834693715969 -12.175926999997683 -16.057784574379813
85 24.121669018656842 -29.247534083477582 24.478853700782473
90 0.9067815048486171 -6.613628114350804 7.413473423578296
86 -4.088563763472828 6.8442328192466855 24.499247775699608
11 5.735034541446468 -3.599361500131272 -2.3005467635453787
341 23.744027613564086 -4.424154400371053 -13.1664480820471
230 3.5838079593563585 -12.302685875287782 8.400804237688835
321 10.11616652151597 -22.63114350114181 5.81239055486314
148 -10.513221287502057 -17.799287274388092 -9.264933710575223
161 13.523914298983055 13.247634235747707 -16.986320940832144
316 -8.562286819105715 15.803789304347543 39.52051732685069