LAMMPS data file via write_data, version 2 Aug 2023, timestep = 5200, units = metal

360 atoms
4 atom types

0.554631410930063 13.45536858907002 xlo xhi
0.554631410930063 13.45536858907002 ylo yhi
0.525731986948645 12.754268013051302 zlo zhi

Masses

1 24.305
2 28.0855
3 15.9994
4 4.002602

Atoms # atomic

256 3 6.598180544684943 4.266723744391779 2.8776375464739337 1 1 -2
357 4 4.493359294966813 3.040934920204184 5.265700101348172 1 0 1
316 4 1.7244535500490157 4.353598474592538 10.65144242166076 2 0 -3
175 3 6.125117431194817 2.670088397254729 1.1962891494101182 1 0 0
214 3 2.7539070301746054 3.567586166246072 11.319402865327447 -1 2 0
132 3 4.095757768045807 3.640746553441501 3.553026191184796 0 0 -1
220 3 1.8807015447705435 1.2528512420978037 1.4882887138584637 1 -1 -1
155 3 1.7026668086756533 2.6537919568622454 3.5741141603548208 -1 0 0
22 1 5.88428740215701 2.7764469702762207 1.3864253161279898 1 0 0
66 2 3.8236674832921373 4.55109122108035 12.30699295410351 0 1 -1
209 3 0.7439490540921504 2.5457331136912598 4.277712382340416 0 1 -1
247 3 2.0694215152910322 0.8616625629770274 4.961534070606055 0 0 0
181 3 4.898730075648623 3.171359361087958 1.7399711426625957 1 1 0
338 4 2.090463776888031 3.429636670639768 3.013131046832543 2 0 2
9 1 6.430710050789188 4.076807124038341 12.54654965083034 0 1 0
54 1 2.7299002151304705 3.7686619600157965 5.994439780954168 0 1 1
15 1 9.455548893266656 4.082957714705058 0.5489781490746072 0 1 0
72 2 9.392188359227063 3.319942846893914 5.020291478527445 -1 1 1
349 4 8.207265887193962 12.287439365535946 4.111271845356659 3 -3 4
98 2 6.965388288689176 2.4314822610873543 4.723856479249395 1 1 1
266 3 8.720583024707619 4.271556820997436 4.44638683871246 1 0 -1
136 3 10.90392421093065 3.4741777022847864 1.0843930025174 0 0 -1
60 2 11.69815015980926 0.6742282931822812 3.993410168710772 0 -1 1
308 4 0.764073329282424 2.365016773804247 2.7707489945323243 0 0 1
188 3 12.667932372078258 2.0802357969577994 2.846937630567566 0 0 -1
223 3 9.967871996230077 12.77195792371618 3.1866874376852907 1 -1 -2
2 1 7.949294666535753 4.709156279505947 2.0425466290896006 0 -1 0
335 4 9.663316672994636 0.9626155508509555 8.593443702733698 -1 1 3
183 3 11.59644764888101 11.807983221266632 3.1874177852203487 -1 -2 0
49 1 7.405471646308269 1.551815741113496 12.412435776786126 -1 1 -2
324 4 11.94420660351852 1.4118260184187474 2.568694414583383 -1 0 0
301 4 10.683847605487625 12.351475490767161 3.990061437549043 0 0 2
264 3 12.137630098737922 2.1935997832066483 12.2860387260869 -1 2 -1
39 1 9.764924450318453 2.9035157423841627 2.52815319194828 -1 1 1
164 3 3.3441020675218778 5.799032095081173 3.5593759934022677 0 -1 0
50 1 12.353528975562885 4.449136522158037 2.334708193649538 -1 0 -1
303 4 1.4976677595828134 7.704542543864126 3.794475178433676 -1 3 -2
6 1 4.7593584019696875 3.807205746501716 7.217507549919139 0 0 1
229 3 6.485225416355833 5.185989893402745 3.5928736069925833 2 -2 0
80 2 4.530121308408053 4.719287077598505 2.952429259670941 1 0 0
336 4 8.913826684168384 7.203531409823768 7.678136850544969 -5 1 6
17 1 11.8623333631095 8.898109916555963 3.417417216987472 -1 1 0
100 2 0.9636503261046845 5.004821546584478 2.235377230065703 1 0 0
152 3 0.6318464004145986 7.712258775680934 3.638398233567379 0 0 -1
95 2 1.685632867416551 6.342615273614441 4.598651888061821 1 0 1
96 2 2.4443401037456605 7.8844099243751415 4.548531630416643 1 -1 0
334 4 5.743906725295614 7.89811417426062 5.189123035306345 -3 0 0
262 3 7.775789875510948 12.656334746437821 3.189528675695243 2 1 0
28 1 6.963320213008376 3.611422160807778 0.9188117907173595 1 1 0
312 4 5.674739917023104 7.17668161025389 1.3940056144624093 -2 3 -1
249 3 9.465731772084542 5.110343321264267 4.240740884683878 0 0 0
329 4 7.846503651625247 4.801678170706535 3.848627749377833 0 -1 0
128 3 5.666328922338348 7.906976470884495 1.7723541610036226 0 0 0
241 3 7.723700989133342 8.072828608042315 12.315472209928277 1 0 -2
253 3 7.433915533642812 6.443418449444619 3.1381165586201027 2 0 0
226 3 6.9197976483761385 9.400913167337972 2.8206506004133307 1 1 -1
240 3 8.385747151074593 11.031982068242634 5.683682240626274 1 2 1
281 4 7.746078363068275 5.072400322254022 3.0898892008172556 2 -2 0
148 3 10.529358176759569 9.379953054938245 12.69369029422413 0 0 -1
46 1 9.974834228638013 9.717180980086365 3.2248770489796357 1 1 0
144 3 7.755954324472785 6.389080089543654 2.3529383428545447 0 0 -1
140 3 6.473514367546772 6.248205888772081 3.909222188508013 -1 0 0
133 3 10.233460215848364 2.0467520713462766 10.34906136315956 1 -3 -3
248 3 10.553422838852516 8.619608479496694 2.8098944897534293 0 -1 0
101 2 11.804672944157904 4.420452958744043 3.2289051827602226 0 1 0
92 2 8.975292055543974 6.648637368392233 2.9674313962381107 0 -1 1
307 4 10.427305828068889 7.790864006678033 8.952423429180676 0 -2 3
325 4 12.134480324237277 6.6848582185273635 11.687505653033309 0 3 6
109 3 10.277860140175878 3.3217256326151907 2.995438544511367 -1 0 1
13 1 0.760525197025612 6.284033297682722 1.6974226910760408 0 0 0
44 1 1.6138626880241793 2.47355088733162 2.3006188961621836 1 1 1
149 3 11.667001317215167 3.315058510936332 5.204230749647711 -1 2 -1
251 3 12.901807833645307 10.121568396302145 5.140943814963775 -1 0 0
64 2 10.92782394835158 9.499161255406772 5.026786342234682 -1 0 0
287 4 1.3180721234466577 3.25600878795934 3.1729287559329835 3 -1 2
104 2 10.394560839146997 8.414422952727568 1.6928702213464648 -1 0 1
30 1 3.991739426498934 10.520361576916418 2.7948674648072647 0 0 1
25 1 12.928243565501795 9.827408885958377 4.134062187187537 0 0 0
14 1 3.2310974323471777 0.573118599918739 1.7403752877128271 0 1 0
94 2 12.733214714428108 10.45173986530229 12.396604154351838 0 -1 -1
259 3 4.745473863023798 2.783493273187944 4.128833231466065 2 0 0
288 4 8.176973078418758 8.261688970595575 1.2833381964125847 1 -2 0
45 1 1.5687659440993762 11.149767393056422 2.4259479982433465 1 1 1
118 3 2.2108605386634315 12.832802441472925 4.746546499685439 0 -2 1
57 2 6.011930538304304 12.462797893270498 3.787175294133315 -1 0 1
74 2 6.699777929014064 9.78284593483237 2.7589412586849864 0 0 -2
12 1 4.630676767094718 10.081146331635189 1.9285667099233146 0 1 0
102 2 7.71269817360821 9.817601843985738 1.3218680469914217 0 -1 1
243 3 4.918957308917899 12.95680540020362 4.657892384271939 1 -1 -1
174 3 8.7854811321033 0.729495445767187 2.247438225913706 0 0 -1
138 3 8.182033396153962 12.653648342981697 2.1386004091638697 -2 -1 0
141 3 6.529664861614356 10.416476553963733 11.761807043265922 0 -1 -1
234 3 7.579455867111927 5.058230941484044 2.266407697903138 0 -4 0
73 2 7.643173653180626 13.039406703772894 5.806936318848122 -1 -1 0
353 4 8.161575326229933 6.911783234820725 11.27691208958553 1 -2 2
343 4 8.470771897363825 0.7895808143389185 2.7552222978882113 2 4 3
267 3 9.08513512481079 10.013273503087213 11.358441029460927 0 -1 0
254 3 8.58833100546116 13.010340716392278 11.526121595551729 0 0 -2
297 4 7.026612089527998 13.347014201487468 12.26066845668791 2 1 -1
292 4 7.2322983774332315 5.331332835515916 1.414777057495591 -1 -4 3
237 3 8.866687888384021 11.395176762192268 10.677326464105104 1 1 -3
330 4 6.061875506060302 7.215852683857187 2.9605873867314076 -1 -2 3
21 1 4.621424887990817 11.13494334509042 1.7803625939534187 0 -1 1
69 2 9.111413740286771 9.14079066751911 4.324217142684891 -1 -1 0
290 4 11.865990592821309 10.682612026497562 2.205755525352944 -2 3 1
298 4 11.269372992443373 1.7060848765647834 12.745280989447966 -1 2 -3
294 4 3.7936446271758872 0.8028271773308776 2.5088735961985966 -1 5 2
304 4 9.170587053954925 13.047214374166689 9.411791430111581 1 -2 4
326 4 12.542146853694025 9.355536580774135 4.01117740109663 -1 0 3
130 3 9.907067921156177 12.53183304320373 10.889313500991125 0 0 -2
81 2 10.467196658739653 11.828860559635917 3.87506929437531 0 1 2
116 3 12.454773369668516 10.538702826561465 4.672103805543487 0 -1 0
224 3 10.620941253960112 6.242222922938726 12.17658004461299 -2 -2 1
89 2 9.465999148816866 11.458084863224038 5.815894813266662 0 -1 1
137 3 1.1855025613168946 7.801161317049999 4.771017554275088 0 0 1
189 3 1.3498473404072397 2.128327942749042 8.311294962238751 0 0 0
277 4 3.6640255901539365 4.121134560639716 10.17532543783846 0 4 2
202 3 4.211918422005048 4.580704527905312 5.6229896379800515 0 1 -1
286 4 4.802511177361646 12.044102245758015 7.84921621860225 -1 -2 0
184 3 8.311198494321385 4.048119486975956 4.637829798836119 2 0 -2
147 3 2.8534135014312283 3.370336252596645 8.640909154354478 1 -1 1
321 4 2.2499190308554082 1.3763885308802113 8.432316251296829 -1 0 2
24 1 2.562874160785853 1.3333729240474663 7.22555010284633 0 0 1
318 4 4.0691997585832365 1.0311616343436059 7.267154099703927 -4 0 -1
293 4 10.441358767551073 4.988715412641069 11.194264469606996 3 3 2
275 4 5.046418766079944 12.97083845979487 6.137467948416267 0 -3 4
79 2 8.389978699035002 2.1860994562615863 5.926372701522243 0 1 0
195 3 4.050385171146894 1.1081524670271001 5.0610498642239214 0 1 0
197 3 7.908986077981342 12.439370389724939 5.328596529545821 1 -2 -1
295 4 6.434036828537222 4.940706006219307 9.802220804587183 2 3 0
272 4 5.849721890392866 1.3629395529674107 2.116340918099998 1 1 5
110 3 11.166632895251574 12.699951255161611 7.4089695807288205 -2 -3 -2
179 3 7.957111553105399 12.481234104082244 6.860381715894063 0 -1 0
323 4 4.460804914863183 8.973118182990678 6.081232955480106 -1 3 0
280 4 5.848757102883675 4.6459988751431975 7.950597945692413 1 3 3
279 4 11.940065575753778 4.912880895413212 4.914649553366917 -5 1 3
158 3 0.8397649265531898 2.881951599284431 9.929381839945336 -1 1 0
355 4 10.962149344761382 2.896996420392224 10.51311457606905 1 2 1
26 1 11.964326827607806 2.0696923855357934 7.0918086262622495 1 -1 1
178 3 12.284473585670487 1.4545925854249173 4.745646620815077 0 0 0
11 1 8.555671045325585 3.9782966357600715 6.132147302301795 -1 1 0
8 1 10.153654824625665 2.1493404711725894 8.648575691614692 0 1 1
348 4 11.990639725743705 12.0388631160463 4.829071901128805 -2 0 1
31 1 12.448548157918438 4.1996755043577085 3.4022637179921764 0 1 0
43 1 11.560797619710712 3.2835586821510647 9.174681327116641 0 0 0
87 2 13.453340461810491 12.403197998323513 7.004329976914826 0 0 0
97 2 12.340329448213303 2.184895376149565 5.097498512189119 -1 0 -1
222 3 10.919575455726005 1.899905979718893 5.787571459238205 0 0 -1
232 3 9.94896216241479 3.0649159471423406 5.225563081671177 -1 0 0
38 1 12.199342609969605 3.8910289717169793 7.274539907896054 1 0 -1
332 4 10.59152012251263 7.480730807184725 11.589708401827568 -1 2 3
284 4 3.808840725742763 11.56282940141061 8.032142265199745 4 -5 1
198 3 2.822162461859369 0.6646394521063549 6.660470033213458 2 -1 1
168 3 12.85656711164198 6.994700799190312 6.336130161390559 -1 -1 0
75 2 4.605335649858322 7.08334673180249 7.516069733293157 0 0 0
339 4 4.5981383139737995 11.62523969023336 10.710616616733098 -2 4 2
276 4 3.3175341508799883 6.5684220162077205 4.675899833102251 -1 1 0
311 4 1.9526259543735807 5.570162085018502 10.684122199606179 0 -1 -1
58 2 5.120897336461734 3.9431576935545984 5.816147406098768 0 0 1
250 3 0.937307689051545 8.346342728586126 6.459698404992797 0 0 0
134 3 2.267598841234001 6.518912454201366 4.793103655915146 0 -1 -1
119 3 1.717906341130818 10.597498771555923 5.454072837426033 0 0 -2
273 4 11.353006859815814 10.187036623910526 5.306698160801303 -3 2 3
90 2 4.01001583812914 7.0854114644567385 5.85071403933284 0 1 0
160 3 2.5175205959297204 7.304747172473171 3.6982842514797305 0 0 -1
236 3 1.4948626527406623 7.4609578777380605 7.981684828491711 1 0 -1
165 3 1.9679798519392346 6.8690692604729495 5.860871043058913 1 0 -1
245 3 10.776428945713945 6.2377211588071555 4.868356890698616 0 0 1
238 3 6.093893335233131 6.477194040567136 4.289621508356468 1 -1 -2
172 3 7.072190516597916 5.986528332937568 6.330083345503258 -1 -1 -1
124 3 12.361659852023013 6.78411543111111 10.422543061329772 -5 -3 -6
185 3 7.482420883105296 2.9547802948049067 5.680852416494825 0 -1 -1
235 3 7.527922038113406 7.947502495061815 10.54981141649193 1 0 -1
52 1 6.555509257752001 9.976830011712671 6.258463568872363 0 1 -1
77 2 4.590335940677108 8.16653558762657 8.00980245597031 0 -1 0
300 4 8.932159067533064 9.999119757829156 6.974542318057875 -2 -1 1
159 3 11.887841601402318 8.918731432401831 7.842721343029909 -1 0 -1
271 4 4.149444285738165 9.958746688796076 10.32626894854505 1 4 0
213 3 6.761725728937248 9.039053545688404 4.054420079274102 1 -2 -1
61 2 8.78358294343223 8.324908806204135 4.816645591879675 -1 0 0
282 4 3.4917836486602463 4.478451741668143 6.798243818906986 -5 -4 1
120 3 5.033936831397709 8.151372207860792 4.634317200491574 0 0 -1
146 3 9.217202919733534 5.772201381202138 4.753523794410753 -1 0 -1
112 3 8.643508406358013 4.352370247964684 7.3037966468075615 0 -1 -1
129 3 9.378480497652316 5.9285112118982894 4.443700032805369 0 0 -1
41 1 7.874532877019396 10.673366556955369 7.168745966709379 1 1 0
91 2 8.582042918514585 9.27891138752307 9.506113212497166 1 0 0
356 4 10.269669719434258 8.40531482811651 2.6380752885767262 -2 1 1
157 3 9.660473050909964 6.277309171658222 5.984747801651722 -1 1 -2
270 3 8.712451106976697 2.5431030741779916 4.009474342631535 -2 0 -2
319 4 11.633187485455341 10.42022942997015 8.63857275044715 1 0 1
3 1 12.394308705669964 9.771856162471025 7.046295409556002 -1 0 0
191 3 1.0191748299210555 4.463562779377849 4.753669636788797 -1 -1 -1
84 2 11.196652502693546 4.3266042177943485 7.74034326095647 1 0 0
320 4 10.003882015057957 8.287849878158754 7.883247402540339 0 2 2
246 3 11.526494611667086 9.969529146052253 4.536969469939723 1 0 -2
162 3 6.6102149292368715 5.26568360070854 5.596833756782516 -1 0 -1
302 4 1.7953489920512893 12.015972987093612 11.306012624328062 3 2 4
173 3 0.7259571205913355 4.497622475845737 4.7502601923806465 1 0 0
306 4 3.0453831341024946 10.680764652628955 7.822377499383874 5 1 0
196 3 1.856822468119549 3.077748790424063 8.311124474328803 1 1 -1
142 3 0.8651628178108046 10.444535737372636 3.9020659925663317 -1 -1 -1
108 2 3.6550228525536137 12.319770383356744 4.852876710372208 1 0 -1
131 3 2.25299820806205 10.362240843373357 7.308911452183082 -1 0 -1
171 3 3.1252490649127105 13.214204150981793 3.7763170705147333 1 -1 -2
265 3 4.604875246839624 9.299629329586995 7.144089525868896 2 0 0
106 2 3.4455075302738845 10.896686888166322 7.550833697788055 1 0 1
135 3 2.6443186761497564 12.286130576965114 3.7484726340405223 0 0 0
244 3 13.042967873451747 8.71952753770676 5.000988804440616 0 0 -1
187 3 1.0709335801904332 8.399773301707047 4.586253514752216 1 -1 -1
83 2 1.1985192738588704 7.944717640315338 8.789645479703118 0 -2 2
360 4 0.7730310504426736 13.086647991360113 10.288665351218128 -1 -1 0
51 1 12.657678795161935 12.507271360488758 4.7590988754086805 -1 1 0
340 4 2.6798335283948824 13.292792429017307 5.931608669214648 0 2 -2
33 1 8.288493092035129 9.801094307527272 6.025376931886274 0 -1 0
7 1 8.722572334470488 12.235278949505549 6.666050679739811 -1 1 0
274 4 5.786899476391731 2.382993401894204 9.099996276289161 -1 2 0
40 1 7.21626727913739 9.037770671421757 6.540768354722752 0 0 0
67 2 7.283915099386266 12.489721194241653 7.0265760557991355 0 1 0
263 3 5.632067001638853 13.422916615685832 5.2040917133220965 0 0 0
150 3 6.386349854783029 0.5849547762695788 4.101954052198424 0 1 -1
4 1 8.657051675943649 9.204377737271905 7.95529506875854 0 0 0
180 3 9.298176063787583 0.5762665210521146 6.539874280324722 -1 1 0
315 4 11.725455904149584 1.4439592371421184 8.354245050384652 -4 4 3
231 3 7.686450084635114 13.065599098235797 8.730383755563004 -1 -1 1
37 1 9.796345595682737 9.57414020777453 7.117862516069127 0 -2 0
201 3 11.077066272940638 11.491967820737536 7.860399172658298 -2 0 0
239 3 13.295152514383464 8.950037057359928 6.383504737422996 0 -1 0
47 1 10.612635434889722 1.4211543969961833 7.125866476722574 0 2 1
29 1 2.4959113226894942 0.9549060339280344 9.017422798544764 1 2 1
242 3 12.530420312142105 8.046659207605828 2.9907279189574387 0 -1 -1
333 4 10.184846392513826 11.271092860504378 6.291330162870981 -5 0 0
115 3 1.829829204868767 3.081971399282689 11.710386215577078 -1 0 -2
228 3 10.825340117414541 8.270912116982247 12.249937726216857 0 0 0
71 2 0.6094256618061311 13.375578252753485 11.670626261539947 -1 -1 0
192 3 0.5984016216590214 3.1855087245285953 10.025332951552343 0 0 -1
345 4 3.92369966604512 9.81902295173358 2.2229037295899374 -1 -2 2
285 4 3.5341702298900137 2.336520659019675 10.750717178257052 -2 2 0
114 3 12.773406187624492 3.002477976688121 2.131182792471812 -1 0 0
260 3 2.216384978516284 4.070759068540859 12.632930651364987 1 0 0
154 3 0.7187756554692553 2.672902212449949 10.636605315350675 -1 0 -1
331 4 12.191301858724003 2.0305198152220734 1.0539909792220747 0 1 4
327 4 4.572613367666977 6.998781173710105 12.05410995681282 -1 4 1
255 3 10.385453764972933 4.771318838999323 8.30558361510941 -1 0 -2
233 3 2.8389954830782056 3.2241070016288367 10.216597874848798 0 1 1
278 4 3.198091955519885 8.304615571319635 10.02456258499285 1 4 2
122 3 0.9368619050687246 1.1389799215231036 8.77619427443297 0 -1 0
18 1 4.152740368256486 1.4737056524442331 8.43900812648436 0 1 0
204 3 3.77631618220181 13.272402579522005 9.683385171736955 0 0 0
283 4 5.53405587070942 2.832457780297909 7.272595698548217 0 0 -1
145 3 7.236754430236916 12.967595946632354 10.002751698109389 -1 -2 -2
346 4 4.730534547091968 5.289982341461222 2.5546706873068232 -1 0 1
121 3 9.006761797499358 0.949244715846536 9.081073183696056 -1 1 -2
205 3 5.735207672694616 12.487704884443357 6.54518696569968 -1 0 -1
269 3 6.057559616053424 13.141322803789691 5.543691469616805 2 0 -2
230 3 5.960899185868125 4.0205094374366555 11.032612788113287 1 -1 -1
70 2 6.01344220444185 1.0604056502316592 11.174384946411028 0 1 -1
10 1 7.851164909596199 5.1717874556922805 11.000637741409708 -2 1 1
117 3 8.638062104639282 6.245945243791471 9.213001696279747 0 1 -3
99 2 5.252718197526832 2.777286130230366 12.200538171289221 0 0 0
163 3 7.36346423048668 0.9063143094281587 0.7750296089792402 -1 -1 -1
347 4 8.075432748413256 4.491211183706116 5.021606644587203 0 4 7
111 3 12.972628754089705 12.333822952085079 7.214135017325599 -1 -1 -1
123 3 11.314502382760793 2.451073120003488 9.93344701283754 -1 -1 -1
190 3 9.048089889820268 3.7096903231249514 11.83384183780488 -1 1 0
176 3 13.326703439558358 2.168751129919997 8.346437472594983 -2 0 -1
82 2 1.1657670523592378 4.42584591658221 10.928272556656587 1 -1 1
252 3 9.316889423170633 4.3679670406316795 10.652750375517968 0 0 -1
62 2 10.541731099452022 4.192737990155246 1.119732624644407 0 1 1
225 3 10.719333674072072 4.810234008402073 0.855575339025027 1 0 0
169 3 9.062124403902676 4.689560155063255 10.639765388751762 0 0 -1
105 2 13.105115196377454 2.280419720442425 2.6429518323747225 0 1 -1
358 4 3.6566205548076613 1.8767899194092372 9.230791108689658 4 2 1
177 3 9.23982068485467 13.41909096960076 8.812488637830846 -1 -2 -1
16 1 10.572637470689042 2.8206985793057995 8.973712119534277 0 2 0
48 1 11.196871950865688 0.7176996347576957 10.720714804964157 0 1 0
5 1 12.92936789823911 3.6526467349431866 8.285111473452648 0 0 0
19 1 2.6927935608279134 6.552629169515776 11.361485366274113 1 0 -1
219 3 12.807849147299617 9.244919102907637 10.980999623794567 -1 0 0
93 2 5.171314219202226 7.8329383829123485 10.358116842498525 1 0 -1
289 4 4.766000022750509 5.007592065391808 2.5400379490669156 0 1 5
352 4 1.3193804143025507 7.347668733674342 11.960732519580496 0 0 1
261 3 3.1121493184539384 8.96448397340513 1.0753255892784461 1 -1 -1
65 2 2.9440125604291185 7.684593268758874 1.7600929063453543 0 0 2
218 3 4.030940534873771 5.201468262583 10.111613408607568 0 -1 0
32 1 1.4165969467977908 7.693622136849032 10.115087391062062 1 1 0
55 2 2.044505868340936 6.007277562275955 11.318467838914238 0 -1 -1
23 1 5.596547613902763 7.195016674549432 11.14370017075004 1 -2 1
208 3 3.09809538540153 4.0410444275989335 7.442222515471508 1 1 0
151 3 1.1811843857666005 4.159716584015663 8.265541931384309 -2 -1 -1
203 3 10.660881342505107 7.885830394572468 8.959932046731947 -2 1 1
210 3 2.1323987531926156 7.259362284635467 12.537691017276853 1 2 -2
194 3 2.628201228035437 4.877776265044546 8.2474073981791 1 0 0
350 4 7.29923844027651 8.299123340503677 3.637111516753514 1 2 2
139 3 8.779100370032406 6.141277704831253 1.7578588668238875 0 -1 1
1 1 5.736583657898327 4.787722623172742 0.7248614230004033 -1 -1 1
322 4 4.568172749970079 4.9226399938150465 10.340630160152184 -1 0 2
341 4 6.7628424870883554 7.280210171210123 11.169650197672674 1 -1 0
206 3 12.056157244962279 11.443999723866174 8.50546319206154 0 2 0
217 3 8.422674388350611 6.035157707425133 11.84053921843644 -1 0 -1
337 4 4.967684229535745 9.734639427375384 2.489276626176039 -2 3 2
313 4 10.484906203402556 10.959985864836462 11.706365454082704 0 4 2
342 4 0.8051617877145807 5.420812213959726 1.606191543154046 0 -1 3
103 2 9.594653529858999 5.609211534360713 9.090612625459944 0 0 -1
88 2 12.136468318151234 5.247173157677244 9.490525260493147 0 1 0
156 3 0.8896267889871998 10.697972456823841 10.554249663896016 -1 1 0
227 3 10.591307659587365 2.069835705447896 9.018032447494019 0 -2 0
78 2 10.704276145128787 8.787901066846945 10.703945410793722 -1 0 0
107 2 11.404276707507641 4.991124329790565 0.8535735992972928 1 0 2
351 4 11.246038281171668 6.453095903012421 2.37843410146867 -1 1 -2
166 3 12.815419762718328 9.961531907710903 9.189553712209555 0 1 -2
127 3 0.621142737669997 6.487791958419367 8.447432035987074 0 -1 -2
143 3 12.523882960150065 8.667215629930006 6.801127582965555 -1 0 0
212 3 11.860824775850688 9.385486916101225 11.768294519290322 -1 -1 -2
42 1 11.79893284069093 6.5140902715193265 10.273021233688265 1 -2 1
27 1 2.528390388591919 11.187923832314699 11.21569197451932 1 1 0
296 4 13.358828996677506 4.947059336611976 4.005746077286256 1 -3 4
68 2 4.138914933238787 12.461983690219029 9.044175050547892 0 -1 0
207 3 2.895790894190918 12.624981725576717 10.86642125528238 2 0 -1
215 3 0.6951054010218239 12.164242728429215 10.80367396970825 0 0 -1
34 1 2.247204308908615 11.027555161424978 8.70689180497748 0 0 1
359 4 2.017387025132023 2.7220751457971977 4.232388562504347 0 1 4
317 4 3.204824251642757 11.594123312177384 10.271974084654428 5 -2 2
305 4 5.035348085558452 0.9248568073723181 12.422822974796532 0 2 2
59 2 2.3238282141738225 8.801482091920107 7.635058699959159 1 0 -2
344 4 11.267879534125981 12.520449316381441 2.2963171157251634 -2 2 2
76 2 2.5245910536755876 10.390560058091761 12.029943598350677 1 -1 1
314 4 0.7073243260395703 7.780592427097038 0.7486907016876139 -4 0 4
86 2 4.764521689775453 9.484801617664196 11.763895325341618 0 -1 -1
193 3 2.7955273979837854 10.788993693334522 9.369322186623386 -1 -2 -1
182 3 2.9776727074464544 0.8848065551636335 10.451192615082334 0 0 -1
310 4 4.4403876486518215 9.228110152496168 11.112990947712586 2 -5 1
125 3 7.341748678704779 10.703974490558636 10.80363964618336 -1 -1 -1
53 1 9.459155541907904 0.6726231776094831 0.7607704265468733 1 2 2
113 3 8.979058447338893 9.8588126975134 10.886126664026595 0 -1 -1
258 3 6.360461474480399 2.627645865477214 11.02119711899206 -1 2 0
126 3 5.937905617872736 1.2296605435938635 8.247849309458658 -2 0 -1
36 1 3.79620156169811 10.991294847672233 8.52183280213075 -1 0 1
167 3 7.0751310423058245 1.0518810539372463 8.961990392529078 -1 1 -2
85 2 7.638016217391685 11.937013681541195 11.093088696009787 -1 0 -1
56 2 5.111524407967805 9.00958423213341 2.75029187236472 0 -1 0
268 3 12.196646434786437 13.145163228031205 9.928781844630294 0 0 -1
328 4 6.360356195701602 9.959595337776385 3.4240873382696573 2 0 2
257 3 9.989974153477355 8.29758577630517 11.906511711387374 1 -1 0
153 3 0.8830915999352872 11.586086059090217 6.8802391751658805 1 0 -1
35 1 0.7511126804565463 12.858172628715884 12.047615217208708 0 0 0
299 4 9.658629457433904 1.1618036405245604 0.9625594703587632 -2 0 1
161 3 8.982481237089878 9.634164109315737 10.373129595521576 0 0 -1
221 3 11.94093182341068 9.537151980383808 9.362854807820927 0 -1 -1
186 3 10.370326329182163 12.392761335212317 9.87246455456086 0 0 -1
200 3 9.28451452249902 10.03861314527379 11.009002237791158 0 0 -1
216 3 9.17910076005575 10.0832742253337 10.9311917782668 0 0 -1
199 3 8.935523207656416 8.508471030102456 9.901122988537658 -1 0 -1
63 2 10.681562267446566 1.0808546929491325 12.53767114050121 0 0 1
211 3 8.934726620081012 10.929863190020743 10.90652355437085 -1 1 0
291 4 3.7274768934978377 11.002801162560495 1.5894512461107664 0 2 3
354 4 4.298084358184775 9.211828045864916 0.7827888680021119 4 -1 2
170 3 12.77533443255064 12.184065193041668 9.516684584071882 0 -1 -1
309 4 10.0941656351036 9.516719595397866 9.072579445374977 -2 -2 -1
20 1 11.755114556561598 13.10809199326565 1.7712145343211751 -1 0 1

Velocities

256 18.34819471462789 11.697560265844857 3.718485013831742
357 18.032282970250108 -0.1724256377367396 33.172091603437735
316 -1.1332916803427702 9.92011967966673 -38.16044630179978
175 23.31245926798734 -1.4507503187020736 2.097433017614591
214 -8.661935708008267 3.0835584253265633 -16.81464063281882
132 -3.1708762104731187 -0.45473468744067247 -5.213351984389324
220 -2.6540870028151415 -0.612146894537934 -9.083751526014291
155 -11.637911893911221 -5.6084999252873295 -1.4740913950621424
22 10.733206394599293 -19.19404921810332 -25.833382756639754
66 8.257766663931129 11.009429268762727 -7.850521407290095
209 -7.221631439325228 -4.251921378465919 -6.093712382375508
247 -17.86414111950488 -39.11955732875222 16.45227588396747
181 -8.724809476078226 0.8867346611019439 11.212554372484517
338 9.352820535962785 5.617293148138499 22.013668943136995
9 15.418125432159266 3.280482036362616 -14.132366878311643
54 -19.44176248867691 -2.6958050505417868 17.889838402513096
15 -0.258732956990354 5.51333410497491 5.268559625289449
72 6.861237296539034 7.526807936498348 7.843418414183622
349 6.734799331694802 -39.12025112012654 3.330734127936581
98 6.147525866500929 -6.131312420771989 9.190401147269137
266 18.323036483392976 -0.24548361933500953 0.6329671013383693
136 5.871375383423876 26.8010704893939 -16.476322275064167
60 3.2940557638031143 -17.156806097149772 13.959903805877108
308 12.036498245097562 -5.704937562759242 26.443924834908266
188 3.1292494854845803 14.026011248797584 1.9868699503489615
223 -4.680860082803911 -2.3624709550186296 1.479304258021356
2 -15.257925684183514 -2.6108932346364346 -9.768939615048517
335 -26.426778545427965 -0.947241857280785 43.20744700314881
183 -10.87688766882397 -15.266038531120971 -5.9546045405902435
49 -28.19843896740445 6.402401607055706 -21.019449047154776
324 4.796740856648256 -16.777145866643767 -0.4666414589068503
301 10.764432896065967 -15.175512111576063 0.4712667239642471
264 6.119384421456646 -4.735070588784122 -6.698799125598471
39 -20.2406494102696 4.946733552408971 5.326162617696873
164 7.902246408876285 -15.22557925146364 -5.753809676438684
50 -11.514096967647221 -10.910842515553789 1.3578471312831952
303 -3.169306911300634 28.31502278706593 27.673053973550516
6 8.746059795523383 -11.620680697862984 28.08067876863407
229 16.875823976161122 14.753914051218384 7.163561441917685
80 9.4695015806076 -10.783680153986356 6.257391076809508
336 -55.71891124311936 -5.091134936894815 52.68846302446778
17 -32.20899470228444 21.306295156317905 -4.489985315341313
100 0.6325933832613556 -3.6551434743164033 5.929855331211232
152 -14.192192937924476 2.7138952535774155 -2.9063450762195395
95 2.0816160806107153 -0.15824453052919024 5.375426592636989
96 10.1750025193578 -4.005891070195733 17.792183089417108
334 -29.86351436599946 -5.155391819441255 30.438653107710095
262 19.21892676467747 59.16162325220298 -8.064913658074275
28 -16.340874368973257 -21.492566221211636 -31.525191390380503
312 2.9969767421026656 8.162788477264929 -7.139719706474056
249 27.8526249401706 4.332529110149455 18.260058393738504
329 -3.845817336041658 -15.450129897657572 18.385033450564293
128 4.200572562341215 9.169928556485567 -14.89907156100268
241 3.761750012942927 -1.031174654456803 -14.566599840457252
253 18.849873483790834 1.1150066494289284 12.52912798580804
226 7.430431060402492 3.8541061567553734 -0.9974634985826298
240 24.381751238740147 35.89957438169513 18.127045048203545
281 22.818431335131066 -8.684519436153172 29.89626075776095
148 15.959765520773068 6.450626954497071 -25.368137710510982
46 -0.3753275077467544 28.56431716878385 -27.05602630139132
144 13.294632575647235 3.928001072029459 -15.609400367889451
140 -9.135879671315838 8.024938924933945 13.050828808399809
133 14.84281532668771 -38.886082939568 -29.72206417858028
248 7.612947024157083 -1.1073400770744126 -12.469380117300656
101 -0.488456231021116 -9.514730272519207 0.8263958309735021
92 -5.643040557524509 -6.070323170890947 24.84809953389224
307 -6.7839267140083965 -12.866469555059272 76.03640085192637
325 -12.140379723940622 7.211967741128555 80.34983322619622
109 -4.144792772056743 -30.144996979697957 10.273306841718993
13 0.7025749056252577 5.828854367353423 -8.055401747417536
44 25.456644317770674 -27.39105208448977 -15.295333001084238
149 -9.501446159661402 -22.95565315110482 11.844480098039295
251 5.067406639718125 19.864219886822955 29.090051418659492
64 -2.9740965868865064 10.860639928273544 14.627868661240997
287 41.96995242227645 -27.951829409116375 32.19679944920043
104 -9.592561285901713 9.495398768668121 1.705181556281269
30 -4.257770161474748 8.950498124260776 2.036868430818876
25 -18.34839503167219 2.9090775828150255 -6.072688665578541
14 -0.43751777554951776 6.962561499504466 -7.903778493619942
94 -9.297250213201714 -3.0656267985605443 -11.585438924069871
259 8.403382343832867 24.856043150677287 22.530130763307913
288 37.687279810161165 -18.86437820353787 -4.917891642435851
45 -0.14817246154576658 8.030012898330318 3.7973259938142143
118 6.59445285152323 -3.0379887479566863 19.189134731495546
57 -16.21813365822353 28.345652773069983 5.734245432060646
74 0.6804871981703295 -7.8218213475415 -16.511235874546944
12 -6.0911618907401985 -4.214662480576723 -5.705543011698601